+ 0.1 0 2 ping 5000 ------- 1 0.0 4.0 -1 0
- 0.1 0 2 ping 5000 ------- 1 0.0 4.0 -1 0
+ 0.1 5 3 ping 6000 ------- 2 5.0 1.0 -1 1
- 0.1 5 3 ping 6000 ------- 2 5.0 1.0 -1 1
+ 0.1 0 2 ping 5000 ------- 1 0.0 4.0 -1 2
+ 0.1 5 3 ping 6000 ------- 2 5.0 1.0 -1 3
+ 0.1 0 2 ping 5000 ------- 1 0.0 4.0 -1 4
+ 0.1 5 3 ping 6000 ------- 2 5.0 1.0 -1 5
+ 0.1 0 2 ping 5000 ------- 1 0.0 4.0 -1 6
+ 0.1 5 3 ping 6000 ------- 2 5.0 1.0 -1 7
+ 0.1 0 2 ping 5000 ------- 1 0.0 4.0 -1 8
+ 0.1 5 3 ping 6000 ------- 2 5.0 1.0 -1 9
+ 0.1 0 2 ping 5000 ------- 1 0.0 4.0 -1 10
+ 0.1 5 3 ping 6000 ------- 2 5.0 1.0 -1 11
+ 0.1 0 2 ping 5000 ------- 1 0.0 4.0 -1 12
+ 0.1 5 3 ping 6000 ------- 2 5.0 1.0 -1 13
+ 0.1 0 2 ping 5000 ------- 1 0.0 4.0 -1 14
+ 0.1 5 3 ping 6000 ------- 2 5.0 1.0 -1 15
+ 0.1 0 2 ping 5000 ------- 1 0.0 4.0 -1 16
+ 0.1 5 3 ping 6000 ------- 2 5.0 1.0 -1 17
+ 0.1 0 2 ping 5000 ------- 1 0.0 4.0 -1 18
+ 0.1 5 3 ping 6000 ------- 2 5.0 1.0 -1 19
- 0.1048 5 3 ping 6000 ------- 2 5.0 1.0 -1 3
- 0.108 0 2 ping 5000 ------- 1 0.0 4.0 -1 2
- 0.1096 5 3 ping 6000 ------- 2 5.0 1.0 -1 5
- 0.1144 5 3 ping 6000 ------- 2 5.0 1.0 -1 7
- 0.116 0 2 ping 5000 ------- 1 0.0 4.0 -1 4
- 0.1192 5 3 ping 6000 ------- 2 5.0 1.0 -1 9
- 0.124 5 3 ping 6000 ------- 2 5.0 1.0 -1 11
- 0.124 0 2 ping 5000 ------- 1 0.0 4.0 -1 6
- 0.1288 5 3 ping 6000 ------- 2 5.0 1.0 -1 13
- 0.132 0 2 ping 5000 ------- 1 0.0 4.0 -1 8
- 0.1336 5 3 ping 6000 ------- 2 5.0 1.0 -1 15
- 0.1384 5 3 ping 6000 ------- 2 5.0 1.0 -1 17
- 0.14 0 2 ping 5000 ------- 1 0.0 4.0 -1 10
- 0.1432 5 3 ping 6000 ------- 2 5.0 1.0 -1 19
- 0.148 0 2 ping 5000 ------- 1 0.0 4.0 -1 12
r 0.1548 5 3 ping 6000 ------- 2 5.0 1.0 -1 1
+ 0.1548 3 2 ping 6000 ------- 2 5.0 1.0 -1 1
- 0.1548 3 2 ping 6000 ------- 2 5.0 1.0 -1 1
- 0.156 0 2 ping 5000 ------- 1 0.0 4.0 -1 14
r 0.158 0 2 ping 5000 ------- 1 0.0 4.0 -1 0
+ 0.158 2 3 ping 5000 ------- 1 0.0 4.0 -1 0
- 0.158 2 3 ping 5000 ------- 1 0.0 4.0 -1 0
r 0.1596 5 3 ping 6000 ------- 2 5.0 1.0 -1 3
+ 0.1596 3 2 ping 6000 ------- 2 5.0 1.0 -1 3
- 0.164 0 2 ping 5000 ------- 1 0.0 4.0 -1 16
r 0.1644 5 3 ping 6000 ------- 2 5.0 1.0 -1 5
+ 0.1644 3 2 ping 6000 ------- 2 5.0 1.0 -1 5
r 0.166 0 2 ping 5000 ------- 1 0.0 4.0 -1 2
+ 0.166 2 3 ping 5000 ------- 1 0.0 4.0 -1 2
r 0.1692 5 3 ping 6000 ------- 2 5.0 1.0 -1 7
+ 0.1692 3 2 ping 6000 ------- 2 5.0 1.0 -1 7
d 0.1692 3 2 ping 6000 ------- 2 5.0 1.0 -1 7
- 0.172 0 2 ping 5000 ------- 1 0.0 4.0 -1 18
r 0.174 5 3 ping 6000 ------- 2 5.0 1.0 -1 9
+ 0.174 3 2 ping 6000 ------- 2 5.0 1.0 -1 9
d 0.174 3 2 ping 6000 ------- 2 5.0 1.0 -1 9
r 0.174 0 2 ping 5000 ------- 1 0.0 4.0 -1 4
+ 0.174 2 3 ping 5000 ------- 1 0.0 4.0 -1 4
r 0.1788 5 3 ping 6000 ------- 2 5.0 1.0 -1 11
+ 0.1788 3 2 ping 6000 ------- 2 5.0 1.0 -1 11
d 0.1788 3 2 ping 6000 ------- 2 5.0 1.0 -1 11
r 0.182 0 2 ping 5000 ------- 1 0.0 4.0 -1 6
+ 0.182 2 3 ping 5000 ------- 1 0.0 4.0 -1 6
d 0.182 2 3 ping 5000 ------- 1 0.0 4.0 -1 6
r 0.1836 5 3 ping 6000 ------- 2 5.0 1.0 -1 13
+ 0.1836 3 2 ping 6000 ------- 2 5.0 1.0 -1 13
d 0.1836 3 2 ping 6000 ------- 2 5.0 1.0 -1 13
r 0.1884 5 3 ping 6000 ------- 2 5.0 1.0 -1 15
+ 0.1884 3 2 ping 6000 ------- 2 5.0 1.0 -1 15
d 0.1884 3 2 ping 6000 ------- 2 5.0 1.0 -1 15
r 0.19 0 2 ping 5000 ------- 1 0.0 4.0 -1 8
+ 0.19 2 3 ping 5000 ------- 1 0.0 4.0 -1 8
d 0.19 2 3 ping 5000 ------- 1 0.0 4.0 -1 8
r 0.1932 5 3 ping 6000 ------- 2 5.0 1.0 -1 17
+ 0.1932 3 2 ping 6000 ------- 2 5.0 1.0 -1 17
d 0.1932 3 2 ping 6000 ------- 2 5.0 1.0 -1 17
r 0.198 5 3 ping 6000 ------- 2 5.0 1.0 -1 19
+ 0.198 3 2 ping 6000 ------- 2 5.0 1.0 -1 19
d 0.198 3 2 ping 6000 ------- 2 5.0 1.0 -1 19
r 0.198 0 2 ping 5000 ------- 1 0.0 4.0 -1 10
+ 0.198 2 3 ping 5000 ------- 1 0.0 4.0 -1 10
d 0.198 2 3 ping 5000 ------- 1 0.0 4.0 -1 10
r 0.206 0 2 ping 5000 ------- 1 0.0 4.0 -1 12
+ 0.206 2 3 ping 5000 ------- 1 0.0 4.0 -1 12
d 0.206 2 3 ping 5000 ------- 1 0.0 4.0 -1 12
r 0.214 0 2 ping 5000 ------- 1 0.0 4.0 -1 14
+ 0.214 2 3 ping 5000 ------- 1 0.0 4.0 -1 14
d 0.214 2 3 ping 5000 ------- 1 0.0 4.0 -1 14
r 0.222 0 2 ping 5000 ------- 1 0.0 4.0 -1 16
+ 0.222 2 3 ping 5000 ------- 1 0.0 4.0 -1 16
d 0.222 2 3 ping 5000 ------- 1 0.0 4.0 -1 16
r 0.23 0 2 ping 5000 ------- 1 0.0 4.0 -1 18
+ 0.23 2 3 ping 5000 ------- 1 0.0 4.0 -1 18
d 0.23 2 3 ping 5000 ------- 1 0.0 4.0 -1 18
- 0.238 2 3 ping 5000 ------- 1 0.0 4.0 -1 2
- 0.2508 3 2 ping 6000 ------- 2 5.0 1.0 -1 3
r 0.288 2 3 ping 5000 ------- 1 0.0 4.0 -1 0
+ 0.288 3 4 ping 5000 ------- 1 0.0 4.0 -1 0
- 0.288 3 4 ping 5000 ------- 1 0.0 4.0 -1 0
r 0.3008 3 2 ping 6000 ------- 2 5.0 1.0 -1 1
+ 0.3008 2 1 ping 6000 ------- 2 5.0 1.0 -1 1
- 0.3008 2 1 ping 6000 ------- 2 5.0 1.0 -1 1
- 0.318 2 3 ping 5000 ------- 1 0.0 4.0 -1 4
- 0.3468 3 2 ping 6000 ------- 2 5.0 1.0 -1 5
r 0.368 2 3 ping 5000 ------- 1 0.0 4.0 -1 2
+ 0.368 3 4 ping 5000 ------- 1 0.0 4.0 -1 2
r 0.3968 3 2 ping 6000 ------- 2 5.0 1.0 -1 3
+ 0.3968 2 1 ping 6000 ------- 2 5.0 1.0 -1 3
- 0.3968 2 1 ping 6000 ------- 2 5.0 1.0 -1 3
r 0.3988 2 1 ping 6000 ------- 2 5.0 1.0 -1 1
+ 0.3988 1 2 ping 64 ------- 0 1.0 5.0 -1 20
- 0.3988 1 2 ping 64 ------- 0 1.0 5.0 -1 20
r 0.448 2 3 ping 5000 ------- 1 0.0 4.0 -1 4
+ 0.448 3 4 ping 5000 ------- 1 0.0 4.0 -1 4
d 0.448 3 4 ping 5000 ------- 1 0.0 4.0 -1 4
r 0.449312 1 2 ping 64 ------- 0 1.0 5.0 -1 20
+ 0.449312 2 3 ping 64 ------- 0 1.0 5.0 -1 20
- 0.449312 2 3 ping 64 ------- 0 1.0 5.0 -1 20
r 0.4928 3 2 ping 6000 ------- 2 5.0 1.0 -1 5
+ 0.4928 2 1 ping 6000 ------- 2 5.0 1.0 -1 5
- 0.4928 2 1 ping 6000 ------- 2 5.0 1.0 -1 5
r 0.4948 2 1 ping 6000 ------- 2 5.0 1.0 -1 3
+ 0.4948 1 2 ping 64 ------- 0 1.0 5.0 -1 21
- 0.4948 1 2 ping 64 ------- 0 1.0 5.0 -1 21
r 0.500336 2 3 ping 64 ------- 0 1.0 5.0 -1 20
+ 0.500336 3 5 ping 64 ------- 0 1.0 5.0 -1 20
- 0.500336 3 5 ping 64 ------- 0 1.0 5.0 -1 20
r 0.545312 1 2 ping 64 ------- 0 1.0 5.0 -1 21
+ 0.545312 2 3 ping 64 ------- 0 1.0 5.0 -1 21
- 0.545312 2 3 ping 64 ------- 0 1.0 5.0 -1 21
r 0.550387 3 5 ping 64 ------- 0 1.0 5.0 -1 20
r 0.5908 2 1 ping 6000 ------- 2 5.0 1.0 -1 5
+ 0.5908 1 2 ping 64 ------- 0 1.0 5.0 -1 22
- 0.5908 1 2 ping 64 ------- 0 1.0 5.0 -1 22
r 0.596336 2 3 ping 64 ------- 0 1.0 5.0 -1 21
+ 0.596336 3 5 ping 64 ------- 0 1.0 5.0 -1 21
- 0.596336 3 5 ping 64 ------- 0 1.0 5.0 -1 21
r 0.641312 1 2 ping 64 ------- 0 1.0 5.0 -1 22
+ 0.641312 2 3 ping 64 ------- 0 1.0 5.0 -1 22
- 0.641312 2 3 ping 64 ------- 0 1.0 5.0 -1 22
r 0.646387 3 5 ping 64 ------- 0 1.0 5.0 -1 21
- 0.688 3 4 ping 5000 ------- 1 0.0 4.0 -1 2
r 0.692336 2 3 ping 64 ------- 0 1.0 5.0 -1 22
+ 0.692336 3 5 ping 64 ------- 0 1.0 5.0 -1 22
- 0.692336 3 5 ping 64 ------- 0 1.0 5.0 -1 22
r 0.738 3 4 ping 5000 ------- 1 0.0 4.0 -1 0
+ 0.738 4 3 ping 64 ------- 0 4.0 0.0 -1 23
- 0.738 4 3 ping 64 ------- 0 4.0 0.0 -1 23
r 0.742387 3 5 ping 64 ------- 0 1.0 5.0 -1 22
r 0.79312 4 3 ping 64 ------- 0 4.0 0.0 -1 23
+ 0.79312 3 2 ping 64 ------- 0 4.0 0.0 -1 23
- 0.79312 3 2 ping 64 ------- 0 4.0 0.0 -1 23
r 0.844144 3 2 ping 64 ------- 0 4.0 0.0 -1 23
+ 0.844144 2 0 ping 64 ------- 0 4.0 0.0 -1 23
- 0.844144 2 0 ping 64 ------- 0 4.0 0.0 -1 23
r 0.894246 2 0 ping 64 ------- 0 4.0 0.0 -1 23
r 1.138 3 4 ping 5000 ------- 1 0.0 4.0 -1 2
+ 1.138 4 3 ping 64 ------- 0 4.0 0.0 -1 24
- 1.138 4 3 ping 64 ------- 0 4.0 0.0 -1 24
r 1.19312 4 3 ping 64 ------- 0 4.0 0.0 -1 24
+ 1.19312 3 2 ping 64 ------- 0 4.0 0.0 -1 24
- 1.19312 3 2 ping 64 ------- 0 4.0 0.0 -1 24
r 1.244144 3 2 ping 64 ------- 0 4.0 0.0 -1 24
+ 1.244144 2 0 ping 64 ------- 0 4.0 0.0 -1 24
- 1.244144 2 0 ping 64 ------- 0 4.0 0.0 -1 24
r 1.294246 2 0 ping 64 ------- 0 4.0 0.0 -1 24
