+ 0.1 0 2 ping 5000 ------- 1 0.0 4.0 -1 0
- 0.1 0 2 ping 5000 ------- 1 0.0 4.0 -1 0
+ 0.1 5 3 ping 6000 ------- 2 5.0 1.0 -1 1
- 0.1 5 3 ping 6000 ------- 2 5.0 1.0 -1 1
+ 0.1 0 2 ping 5000 ------- 1 0.0 4.0 -1 2
+ 0.1 5 3 ping 6000 ------- 2 5.0 1.0 -1 3
+ 0.1 0 2 ping 5000 ------- 1 0.0 4.0 -1 4
+ 0.1 5 3 ping 6000 ------- 2 5.0 1.0 -1 5
+ 0.1 0 2 ping 5000 ------- 1 0.0 4.0 -1 6
+ 0.1 5 3 ping 6000 ------- 2 5.0 1.0 -1 7
+ 0.1 0 2 ping 5000 ------- 1 0.0 4.0 -1 8
+ 0.1 5 3 ping 6000 ------- 2 5.0 1.0 -1 9
+ 0.1 0 2 ping 5000 ------- 1 0.0 4.0 -1 10
+ 0.1 5 3 ping 6000 ------- 2 5.0 1.0 -1 11
+ 0.1 0 2 ping 5000 ------- 1 0.0 4.0 -1 12
+ 0.1 5 3 ping 6000 ------- 2 5.0 1.0 -1 13
+ 0.1 0 2 ping 5000 ------- 1 0.0 4.0 -1 14
+ 0.1 5 3 ping 6000 ------- 2 5.0 1.0 -1 15
+ 0.1 0 2 ping 5000 ------- 1 0.0 4.0 -1 16
+ 0.1 5 3 ping 6000 ------- 2 5.0 1.0 -1 17
+ 0.1 0 2 ping 5000 ------- 1 0.0 4.0 -1 18
+ 0.1 5 3 ping 6000 ------- 2 5.0 1.0 -1 19
+ 0.1 0 2 ping 5000 ------- 1 0.0 4.0 -1 20
+ 0.1 5 3 ping 6000 ------- 2 5.0 1.0 -1 21
+ 0.1 0 2 ping 5000 ------- 1 0.0 4.0 -1 22
+ 0.1 5 3 ping 6000 ------- 2 5.0 1.0 -1 23
+ 0.1 0 2 ping 5000 ------- 1 0.0 4.0 -1 24
+ 0.1 5 3 ping 6000 ------- 2 5.0 1.0 -1 25
+ 0.1 0 2 ping 5000 ------- 1 0.0 4.0 -1 26
+ 0.1 5 3 ping 6000 ------- 2 5.0 1.0 -1 27
+ 0.1 0 2 ping 5000 ------- 1 0.0 4.0 -1 28
d 0.1 0 2 ping 5000 ------- 1 0.0 4.0 -1 28
+ 0.1 5 3 ping 6000 ------- 2 5.0 1.0 -1 29
d 0.1 5 3 ping 6000 ------- 2 5.0 1.0 -1 29
+ 0.1 0 2 ping 5000 ------- 1 0.0 4.0 -1 30
d 0.1 0 2 ping 5000 ------- 1 0.0 4.0 -1 30
+ 0.1 5 3 ping 6000 ------- 2 5.0 1.0 -1 31
d 0.1 5 3 ping 6000 ------- 2 5.0 1.0 -1 31
+ 0.1 0 2 ping 5000 ------- 1 0.0 4.0 -1 32
d 0.1 0 2 ping 5000 ------- 1 0.0 4.0 -1 32
+ 0.1 5 3 ping 6000 ------- 2 5.0 1.0 -1 33
d 0.1 5 3 ping 6000 ------- 2 5.0 1.0 -1 33
+ 0.1 0 2 ping 5000 ------- 1 0.0 4.0 -1 34
d 0.1 0 2 ping 5000 ------- 1 0.0 4.0 -1 34
+ 0.1 5 3 ping 6000 ------- 2 5.0 1.0 -1 35
d 0.1 5 3 ping 6000 ------- 2 5.0 1.0 -1 35
+ 0.1 0 2 ping 5000 ------- 1 0.0 4.0 -1 36
d 0.1 0 2 ping 5000 ------- 1 0.0 4.0 -1 36
+ 0.1 5 3 ping 6000 ------- 2 5.0 1.0 -1 37
d 0.1 5 3 ping 6000 ------- 2 5.0 1.0 -1 37
+ 0.1 0 2 ping 5000 ------- 1 0.0 4.0 -1 38
d 0.1 0 2 ping 5000 ------- 1 0.0 4.0 -1 38
+ 0.1 5 3 ping 6000 ------- 2 5.0 1.0 -1 39
d 0.1 5 3 ping 6000 ------- 2 5.0 1.0 -1 39
- 0.103636 0 2 ping 5000 ------- 1 0.0 4.0 -1 2
- 0.107273 0 2 ping 5000 ------- 1 0.0 4.0 -1 4
- 0.110909 0 2 ping 5000 ------- 1 0.0 4.0 -1 6
- 0.114545 0 2 ping 5000 ------- 1 0.0 4.0 -1 8
- 0.116 5 3 ping 6000 ------- 2 5.0 1.0 -1 3
- 0.118182 0 2 ping 5000 ------- 1 0.0 4.0 -1 10
- 0.121818 0 2 ping 5000 ------- 1 0.0 4.0 -1 12
- 0.125455 0 2 ping 5000 ------- 1 0.0 4.0 -1 14
- 0.129091 0 2 ping 5000 ------- 1 0.0 4.0 -1 16
- 0.132 5 3 ping 6000 ------- 2 5.0 1.0 -1 5
- 0.132727 0 2 ping 5000 ------- 1 0.0 4.0 -1 18
- 0.136364 0 2 ping 5000 ------- 1 0.0 4.0 -1 20
- 0.14 0 2 ping 5000 ------- 1 0.0 4.0 -1 22
- 0.143636 0 2 ping 5000 ------- 1 0.0 4.0 -1 24
- 0.147273 0 2 ping 5000 ------- 1 0.0 4.0 -1 26
- 0.148 5 3 ping 6000 ------- 2 5.0 1.0 -1 7
r 0.153636 0 2 ping 5000 ------- 1 0.0 4.0 -1 0
+ 0.153636 2 3 ping 5000 ------- 1 0.0 4.0 -1 0
- 0.153636 2 3 ping 5000 ------- 1 0.0 4.0 -1 0
r 0.157273 0 2 ping 5000 ------- 1 0.0 4.0 -1 2
+ 0.157273 2 3 ping 5000 ------- 1 0.0 4.0 -1 2
r 0.160909 0 2 ping 5000 ------- 1 0.0 4.0 -1 4
+ 0.160909 2 3 ping 5000 ------- 1 0.0 4.0 -1 4
- 0.161636 2 3 ping 5000 ------- 1 0.0 4.0 -1 2
- 0.164 5 3 ping 6000 ------- 2 5.0 1.0 -1 9
r 0.164545 0 2 ping 5000 ------- 1 0.0 4.0 -1 6
+ 0.164545 2 3 ping 5000 ------- 1 0.0 4.0 -1 6
r 0.166 5 3 ping 6000 ------- 2 5.0 1.0 -1 1
+ 0.166 3 2 ping 6000 ------- 2 5.0 1.0 -1 1
- 0.166 3 2 ping 6000 ------- 2 5.0 1.0 -1 1
r 0.168182 0 2 ping 5000 ------- 1 0.0 4.0 -1 8
+ 0.168182 2 3 ping 5000 ------- 1 0.0 4.0 -1 8
- 0.169636 2 3 ping 5000 ------- 1 0.0 4.0 -1 4
r 0.171818 0 2 ping 5000 ------- 1 0.0 4.0 -1 10
+ 0.171818 2 3 ping 5000 ------- 1 0.0 4.0 -1 10
r 0.175455 0 2 ping 5000 ------- 1 0.0 4.0 -1 12
+ 0.175455 2 3 ping 5000 ------- 1 0.0 4.0 -1 12
d 0.175455 2 3 ping 5000 ------- 1 0.0 4.0 -1 12
- 0.177636 2 3 ping 5000 ------- 1 0.0 4.0 -1 6
r 0.179091 0 2 ping 5000 ------- 1 0.0 4.0 -1 14
+ 0.179091 2 3 ping 5000 ------- 1 0.0 4.0 -1 14
- 0.18 5 3 ping 6000 ------- 2 5.0 1.0 -1 11
r 0.182 5 3 ping 6000 ------- 2 5.0 1.0 -1 3
+ 0.182 3 2 ping 6000 ------- 2 5.0 1.0 -1 3
- 0.182 3 2 ping 6000 ------- 2 5.0 1.0 -1 3
r 0.182727 0 2 ping 5000 ------- 1 0.0 4.0 -1 16
+ 0.182727 2 3 ping 5000 ------- 1 0.0 4.0 -1 16
d 0.182727 2 3 ping 5000 ------- 1 0.0 4.0 -1 16
- 0.185636 2 3 ping 5000 ------- 1 0.0 4.0 -1 8
r 0.186364 0 2 ping 5000 ------- 1 0.0 4.0 -1 18
+ 0.186364 2 3 ping 5000 ------- 1 0.0 4.0 -1 18
r 0.19 0 2 ping 5000 ------- 1 0.0 4.0 -1 20
+ 0.19 2 3 ping 5000 ------- 1 0.0 4.0 -1 20
d 0.19 2 3 ping 5000 ------- 1 0.0 4.0 -1 20
r 0.193636 0 2 ping 5000 ------- 1 0.0 4.0 -1 22
+ 0.193636 2 3 ping 5000 ------- 1 0.0 4.0 -1 22
d 0.193636 2 3 ping 5000 ------- 1 0.0 4.0 -1 22
- 0.193636 2 3 ping 5000 ------- 1 0.0 4.0 -1 10
- 0.196 5 3 ping 6000 ------- 2 5.0 1.0 -1 13
r 0.197273 0 2 ping 5000 ------- 1 0.0 4.0 -1 24
+ 0.197273 2 3 ping 5000 ------- 1 0.0 4.0 -1 24
r 0.198 5 3 ping 6000 ------- 2 5.0 1.0 -1 5
+ 0.198 3 2 ping 6000 ------- 2 5.0 1.0 -1 5
- 0.198 3 2 ping 6000 ------- 2 5.0 1.0 -1 5
r 0.200909 0 2 ping 5000 ------- 1 0.0 4.0 -1 26
+ 0.200909 2 3 ping 5000 ------- 1 0.0 4.0 -1 26
d 0.200909 2 3 ping 5000 ------- 1 0.0 4.0 -1 26
- 0.201636 2 3 ping 5000 ------- 1 0.0 4.0 -1 14
- 0.209636 2 3 ping 5000 ------- 1 0.0 4.0 -1 18
r 0.211636 2 3 ping 5000 ------- 1 0.0 4.0 -1 0
+ 0.211636 3 4 ping 5000 ------- 1 0.0 4.0 -1 0
- 0.211636 3 4 ping 5000 ------- 1 0.0 4.0 -1 0
- 0.212 5 3 ping 6000 ------- 2 5.0 1.0 -1 15
r 0.214 5 3 ping 6000 ------- 2 5.0 1.0 -1 7
+ 0.214 3 2 ping 6000 ------- 2 5.0 1.0 -1 7
- 0.214 3 2 ping 6000 ------- 2 5.0 1.0 -1 7
- 0.217636 2 3 ping 5000 ------- 1 0.0 4.0 -1 24
r 0.219636 2 3 ping 5000 ------- 1 0.0 4.0 -1 2
+ 0.219636 3 4 ping 5000 ------- 1 0.0 4.0 -1 2
r 0.2256 3 2 ping 6000 ------- 2 5.0 1.0 -1 1
+ 0.2256 2 1 ping 6000 ------- 2 5.0 1.0 -1 1
- 0.2256 2 1 ping 6000 ------- 2 5.0 1.0 -1 1
r 0.227636 2 3 ping 5000 ------- 1 0.0 4.0 -1 4
+ 0.227636 3 4 ping 5000 ------- 1 0.0 4.0 -1 4
- 0.228 5 3 ping 6000 ------- 2 5.0 1.0 -1 17
r 0.23 5 3 ping 6000 ------- 2 5.0 1.0 -1 9
+ 0.23 3 2 ping 6000 ------- 2 5.0 1.0 -1 9
- 0.23 3 2 ping 6000 ------- 2 5.0 1.0 -1 9
r 0.235636 2 3 ping 5000 ------- 1 0.0 4.0 -1 6
+ 0.235636 3 4 ping 5000 ------- 1 0.0 4.0 -1 6
r 0.2416 3 2 ping 6000 ------- 2 5.0 1.0 -1 3
+ 0.2416 2 1 ping 6000 ------- 2 5.0 1.0 -1 3
r 0.243636 2 3 ping 5000 ------- 1 0.0 4.0 -1 8
+ 0.243636 3 4 ping 5000 ------- 1 0.0 4.0 -1 8
- 0.244 5 3 ping 6000 ------- 2 5.0 1.0 -1 19
r 0.246 5 3 ping 6000 ------- 2 5.0 1.0 -1 11
+ 0.246 3 2 ping 6000 ------- 2 5.0 1.0 -1 11
- 0.246 3 2 ping 6000 ------- 2 5.0 1.0 -1 11
- 0.2496 2 1 ping 6000 ------- 2 5.0 1.0 -1 3
r 0.251636 2 3 ping 5000 ------- 1 0.0 4.0 -1 10
+ 0.251636 3 4 ping 5000 ------- 1 0.0 4.0 -1 10
r 0.2576 3 2 ping 6000 ------- 2 5.0 1.0 -1 5
+ 0.2576 2 1 ping 6000 ------- 2 5.0 1.0 -1 5
r 0.259636 2 3 ping 5000 ------- 1 0.0 4.0 -1 14
+ 0.259636 3 4 ping 5000 ------- 1 0.0 4.0 -1 14
- 0.26 5 3 ping 6000 ------- 2 5.0 1.0 -1 21
r 0.262 5 3 ping 6000 ------- 2 5.0 1.0 -1 13
+ 0.262 3 2 ping 6000 ------- 2 5.0 1.0 -1 13
- 0.262 3 2 ping 6000 ------- 2 5.0 1.0 -1 13
r 0.267636 2 3 ping 5000 ------- 1 0.0 4.0 -1 18
+ 0.267636 3 4 ping 5000 ------- 1 0.0 4.0 -1 18
r 0.2736 3 2 ping 6000 ------- 2 5.0 1.0 -1 7
+ 0.2736 2 1 ping 6000 ------- 2 5.0 1.0 -1 7
- 0.2736 2 1 ping 6000 ------- 2 5.0 1.0 -1 5
r 0.275636 2 3 ping 5000 ------- 1 0.0 4.0 -1 24
+ 0.275636 3 4 ping 5000 ------- 1 0.0 4.0 -1 24
d 0.275636 3 4 ping 5000 ------- 1 0.0 4.0 -1 24
- 0.276 5 3 ping 6000 ------- 2 5.0 1.0 -1 23
r 0.278 5 3 ping 6000 ------- 2 5.0 1.0 -1 15
+ 0.278 3 2 ping 6000 ------- 2 5.0 1.0 -1 15
- 0.278 3 2 ping 6000 ------- 2 5.0 1.0 -1 15
r 0.2896 3 2 ping 6000 ------- 2 5.0 1.0 -1 9
+ 0.2896 2 1 ping 6000 ------- 2 5.0 1.0 -1 9
- 0.291636 3 4 ping 5000 ------- 1 0.0 4.0 -1 2
- 0.292 5 3 ping 6000 ------- 2 5.0 1.0 -1 25
r 0.294 5 3 ping 6000 ------- 2 5.0 1.0 -1 17
+ 0.294 3 2 ping 6000 ------- 2 5.0 1.0 -1 17
- 0.294 3 2 ping 6000 ------- 2 5.0 1.0 -1 17
- 0.2976 2 1 ping 6000 ------- 2 5.0 1.0 -1 7
r 0.2996 2 1 ping 6000 ------- 2 5.0 1.0 -1 1
+ 0.2996 1 2 ping 64 ------- 0 1.0 5.0 -1 40
- 0.2996 1 2 ping 64 ------- 0 1.0 5.0 -1 40
r 0.3056 3 2 ping 6000 ------- 2 5.0 1.0 -1 11
+ 0.3056 2 1 ping 6000 ------- 2 5.0 1.0 -1 11
- 0.308 5 3 ping 6000 ------- 2 5.0 1.0 -1 27
r 0.31 5 3 ping 6000 ------- 2 5.0 1.0 -1 19
+ 0.31 3 2 ping 6000 ------- 2 5.0 1.0 -1 19
- 0.31 3 2 ping 6000 ------- 2 5.0 1.0 -1 19
r 0.3216 3 2 ping 6000 ------- 2 5.0 1.0 -1 13
+ 0.3216 2 1 ping 6000 ------- 2 5.0 1.0 -1 13
- 0.3216 2 1 ping 6000 ------- 2 5.0 1.0 -1 9
r 0.3236 2 1 ping 6000 ------- 2 5.0 1.0 -1 3
+ 0.3236 1 2 ping 64 ------- 0 1.0 5.0 -1 41
- 0.3236 1 2 ping 64 ------- 0 1.0 5.0 -1 41
r 0.326 5 3 ping 6000 ------- 2 5.0 1.0 -1 21
+ 0.326 3 2 ping 6000 ------- 2 5.0 1.0 -1 21
- 0.326 3 2 ping 6000 ------- 2 5.0 1.0 -1 21
r 0.3376 3 2 ping 6000 ------- 2 5.0 1.0 -1 15
+ 0.3376 2 1 ping 6000 ------- 2 5.0 1.0 -1 15
r 0.341636 3 4 ping 5000 ------- 1 0.0 4.0 -1 0
+ 0.341636 4 3 ping 64 ------- 0 4.0 0.0 -1 42
- 0.341636 4 3 ping 64 ------- 0 4.0 0.0 -1 42
r 0.342 5 3 ping 6000 ------- 2 5.0 1.0 -1 23
+ 0.342 3 2 ping 6000 ------- 2 5.0 1.0 -1 23
- 0.342 3 2 ping 6000 ------- 2 5.0 1.0 -1 23
- 0.3456 2 1 ping 6000 ------- 2 5.0 1.0 -1 11
r 0.3476 2 1 ping 6000 ------- 2 5.0 1.0 -1 5
+ 0.3476 1 2 ping 64 ------- 0 1.0 5.0 -1 43
- 0.3476 1 2 ping 64 ------- 0 1.0 5.0 -1 43
r 0.349856 1 2 ping 64 ------- 0 1.0 5.0 -1 40
+ 0.349856 2 3 ping 64 ------- 0 1.0 5.0 -1 40
- 0.349856 2 3 ping 64 ------- 0 1.0 5.0 -1 40
r 0.3536 3 2 ping 6000 ------- 2 5.0 1.0 -1 17
+ 0.3536 2 1 ping 6000 ------- 2 5.0 1.0 -1 17
r 0.358 5 3 ping 6000 ------- 2 5.0 1.0 -1 25
+ 0.358 3 2 ping 6000 ------- 2 5.0 1.0 -1 25
- 0.358 3 2 ping 6000 ------- 2 5.0 1.0 -1 25
r 0.3696 3 2 ping 6000 ------- 2 5.0 1.0 -1 19
+ 0.3696 2 1 ping 6000 ------- 2 5.0 1.0 -1 19
- 0.3696 2 1 ping 6000 ------- 2 5.0 1.0 -1 13
r 0.3716 2 1 ping 6000 ------- 2 5.0 1.0 -1 7
+ 0.3716 1 2 ping 64 ------- 0 1.0 5.0 -1 44
- 0.3716 1 2 ping 64 ------- 0 1.0 5.0 -1 44
- 0.371636 3 4 ping 5000 ------- 1 0.0 4.0 -1 4
r 0.373856 1 2 ping 64 ------- 0 1.0 5.0 -1 41
+ 0.373856 2 3 ping 64 ------- 0 1.0 5.0 -1 41
- 0.373856 2 3 ping 64 ------- 0 1.0 5.0 -1 41
r 0.374 5 3 ping 6000 ------- 2 5.0 1.0 -1 27
+ 0.374 3 2 ping 6000 ------- 2 5.0 1.0 -1 27
- 0.374 3 2 ping 6000 ------- 2 5.0 1.0 -1 27
r 0.3856 3 2 ping 6000 ------- 2 5.0 1.0 -1 21
+ 0.3856 2 1 ping 6000 ------- 2 5.0 1.0 -1 21
r 0.39266 4 3 ping 64 ------- 0 4.0 0.0 -1 42
+ 0.39266 3 2 ping 64 ------- 0 4.0 0.0 -1 42
- 0.39266 3 2 ping 64 ------- 0 4.0 0.0 -1 42
- 0.3936 2 1 ping 6000 ------- 2 5.0 1.0 -1 15
r 0.3956 2 1 ping 6000 ------- 2 5.0 1.0 -1 9
+ 0.3956 1 2 ping 64 ------- 0 1.0 5.0 -1 45
- 0.3956 1 2 ping 64 ------- 0 1.0 5.0 -1 45
r 0.397856 1 2 ping 64 ------- 0 1.0 5.0 -1 43
+ 0.397856 2 3 ping 64 ------- 0 1.0 5.0 -1 43
- 0.397856 2 3 ping 64 ------- 0 1.0 5.0 -1 43
r 0.399958 2 3 ping 64 ------- 0 1.0 5.0 -1 40
+ 0.399958 3 5 ping 64 ------- 0 1.0 5.0 -1 40
- 0.399958 3 5 ping 64 ------- 0 1.0 5.0 -1 40
r 0.4016 3 2 ping 6000 ------- 2 5.0 1.0 -1 23
+ 0.4016 2 1 ping 6000 ------- 2 5.0 1.0 -1 23
r 0.4176 3 2 ping 6000 ------- 2 5.0 1.0 -1 25
+ 0.4176 2 1 ping 6000 ------- 2 5.0 1.0 -1 25
- 0.4176 2 1 ping 6000 ------- 2 5.0 1.0 -1 17
r 0.4196 2 1 ping 6000 ------- 2 5.0 1.0 -1 11
+ 0.4196 1 2 ping 64 ------- 0 1.0 5.0 -1 46
- 0.4196 1 2 ping 64 ------- 0 1.0 5.0 -1 46
r 0.421636 3 4 ping 5000 ------- 1 0.0 4.0 -1 2
+ 0.421636 4 3 ping 64 ------- 0 4.0 0.0 -1 47
- 0.421636 4 3 ping 64 ------- 0 4.0 0.0 -1 47
r 0.421856 1 2 ping 64 ------- 0 1.0 5.0 -1 44
+ 0.421856 2 3 ping 64 ------- 0 1.0 5.0 -1 44
- 0.421856 2 3 ping 64 ------- 0 1.0 5.0 -1 44
r 0.423958 2 3 ping 64 ------- 0 1.0 5.0 -1 41
+ 0.423958 3 5 ping 64 ------- 0 1.0 5.0 -1 41
- 0.423958 3 5 ping 64 ------- 0 1.0 5.0 -1 41
r 0.4336 3 2 ping 6000 ------- 2 5.0 1.0 -1 27
+ 0.4336 2 1 ping 6000 ------- 2 5.0 1.0 -1 27
- 0.4416 2 1 ping 6000 ------- 2 5.0 1.0 -1 19
r 0.442763 3 2 ping 64 ------- 0 4.0 0.0 -1 42
+ 0.442763 2 0 ping 64 ------- 0 4.0 0.0 -1 42
- 0.442763 2 0 ping 64 ------- 0 4.0 0.0 -1 42
r 0.4436 2 1 ping 6000 ------- 2 5.0 1.0 -1 13
+ 0.4436 1 2 ping 64 ------- 0 1.0 5.0 -1 48
- 0.4436 1 2 ping 64 ------- 0 1.0 5.0 -1 48
r 0.445856 1 2 ping 64 ------- 0 1.0 5.0 -1 45
+ 0.445856 2 3 ping 64 ------- 0 1.0 5.0 -1 45
- 0.445856 2 3 ping 64 ------- 0 1.0 5.0 -1 45
r 0.447958 2 3 ping 64 ------- 0 1.0 5.0 -1 43
+ 0.447958 3 5 ping 64 ------- 0 1.0 5.0 -1 43
- 0.447958 3 5 ping 64 ------- 0 1.0 5.0 -1 43
r 0.450129 3 5 ping 64 ------- 0 1.0 5.0 -1 40
- 0.451636 3 4 ping 5000 ------- 1 0.0 4.0 -1 6
- 0.4656 2 1 ping 6000 ------- 2 5.0 1.0 -1 21
r 0.4676 2 1 ping 6000 ------- 2 5.0 1.0 -1 15
+ 0.4676 1 2 ping 64 ------- 0 1.0 5.0 -1 49
- 0.4676 1 2 ping 64 ------- 0 1.0 5.0 -1 49
r 0.469856 1 2 ping 64 ------- 0 1.0 5.0 -1 46
+ 0.469856 2 3 ping 64 ------- 0 1.0 5.0 -1 46
- 0.469856 2 3 ping 64 ------- 0 1.0 5.0 -1 46
r 0.471958 2 3 ping 64 ------- 0 1.0 5.0 -1 44
+ 0.471958 3 5 ping 64 ------- 0 1.0 5.0 -1 44
- 0.471958 3 5 ping 64 ------- 0 1.0 5.0 -1 44
r 0.47266 4 3 ping 64 ------- 0 4.0 0.0 -1 47
+ 0.47266 3 2 ping 64 ------- 0 4.0 0.0 -1 47
- 0.47266 3 2 ping 64 ------- 0 4.0 0.0 -1 47
r 0.474129 3 5 ping 64 ------- 0 1.0 5.0 -1 41
- 0.4896 2 1 ping 6000 ------- 2 5.0 1.0 -1 23
r 0.4916 2 1 ping 6000 ------- 2 5.0 1.0 -1 17
+ 0.4916 1 2 ping 64 ------- 0 1.0 5.0 -1 50
- 0.4916 1 2 ping 64 ------- 0 1.0 5.0 -1 50
r 0.492809 2 0 ping 64 ------- 0 4.0 0.0 -1 42
r 0.493856 1 2 ping 64 ------- 0 1.0 5.0 -1 48
+ 0.493856 2 3 ping 64 ------- 0 1.0 5.0 -1 48
- 0.493856 2 3 ping 64 ------- 0 1.0 5.0 -1 48
r 0.495958 2 3 ping 64 ------- 0 1.0 5.0 -1 45
+ 0.495958 3 5 ping 64 ------- 0 1.0 5.0 -1 45
- 0.495958 3 5 ping 64 ------- 0 1.0 5.0 -1 45
r 0.498129 3 5 ping 64 ------- 0 1.0 5.0 -1 43
r 0.501636 3 4 ping 5000 ------- 1 0.0 4.0 -1 4
+ 0.501636 4 3 ping 64 ------- 0 4.0 0.0 -1 51
- 0.501636 4 3 ping 64 ------- 0 4.0 0.0 -1 51
- 0.5136 2 1 ping 6000 ------- 2 5.0 1.0 -1 25
r 0.5156 2 1 ping 6000 ------- 2 5.0 1.0 -1 19
+ 0.5156 1 2 ping 64 ------- 0 1.0 5.0 -1 52
- 0.5156 1 2 ping 64 ------- 0 1.0 5.0 -1 52
r 0.517856 1 2 ping 64 ------- 0 1.0 5.0 -1 49
+ 0.517856 2 3 ping 64 ------- 0 1.0 5.0 -1 49
- 0.517856 2 3 ping 64 ------- 0 1.0 5.0 -1 49
r 0.519958 2 3 ping 64 ------- 0 1.0 5.0 -1 46
+ 0.519958 3 5 ping 64 ------- 0 1.0 5.0 -1 46
- 0.519958 3 5 ping 64 ------- 0 1.0 5.0 -1 46
r 0.522129 3 5 ping 64 ------- 0 1.0 5.0 -1 44
r 0.522763 3 2 ping 64 ------- 0 4.0 0.0 -1 47
+ 0.522763 2 0 ping 64 ------- 0 4.0 0.0 -1 47
- 0.522763 2 0 ping 64 ------- 0 4.0 0.0 -1 47
- 0.531636 3 4 ping 5000 ------- 1 0.0 4.0 -1 8
- 0.5376 2 1 ping 6000 ------- 2 5.0 1.0 -1 27
r 0.5396 2 1 ping 6000 ------- 2 5.0 1.0 -1 21
+ 0.5396 1 2 ping 64 ------- 0 1.0 5.0 -1 53
- 0.5396 1 2 ping 64 ------- 0 1.0 5.0 -1 53
r 0.541856 1 2 ping 64 ------- 0 1.0 5.0 -1 50
+ 0.541856 2 3 ping 64 ------- 0 1.0 5.0 -1 50
- 0.541856 2 3 ping 64 ------- 0 1.0 5.0 -1 50
r 0.543958 2 3 ping 64 ------- 0 1.0 5.0 -1 48
+ 0.543958 3 5 ping 64 ------- 0 1.0 5.0 -1 48
- 0.543958 3 5 ping 64 ------- 0 1.0 5.0 -1 48
r 0.546129 3 5 ping 64 ------- 0 1.0 5.0 -1 45
r 0.55266 4 3 ping 64 ------- 0 4.0 0.0 -1 51
+ 0.55266 3 2 ping 64 ------- 0 4.0 0.0 -1 51
- 0.55266 3 2 ping 64 ------- 0 4.0 0.0 -1 51
r 0.5636 2 1 ping 6000 ------- 2 5.0 1.0 -1 23
+ 0.5636 1 2 ping 64 ------- 0 1.0 5.0 -1 54
- 0.5636 1 2 ping 64 ------- 0 1.0 5.0 -1 54
r 0.565856 1 2 ping 64 ------- 0 1.0 5.0 -1 52
+ 0.565856 2 3 ping 64 ------- 0 1.0 5.0 -1 52
- 0.565856 2 3 ping 64 ------- 0 1.0 5.0 -1 52
r 0.567958 2 3 ping 64 ------- 0 1.0 5.0 -1 49
+ 0.567958 3 5 ping 64 ------- 0 1.0 5.0 -1 49
- 0.567958 3 5 ping 64 ------- 0 1.0 5.0 -1 49
r 0.570129 3 5 ping 64 ------- 0 1.0 5.0 -1 46
r 0.572809 2 0 ping 64 ------- 0 4.0 0.0 -1 47
r 0.581636 3 4 ping 5000 ------- 1 0.0 4.0 -1 6
+ 0.581636 4 3 ping 64 ------- 0 4.0 0.0 -1 55
- 0.581636 4 3 ping 64 ------- 0 4.0 0.0 -1 55
r 0.5876 2 1 ping 6000 ------- 2 5.0 1.0 -1 25
+ 0.5876 1 2 ping 64 ------- 0 1.0 5.0 -1 56
- 0.5876 1 2 ping 64 ------- 0 1.0 5.0 -1 56
r 0.589856 1 2 ping 64 ------- 0 1.0 5.0 -1 53
+ 0.589856 2 3 ping 64 ------- 0 1.0 5.0 -1 53
- 0.589856 2 3 ping 64 ------- 0 1.0 5.0 -1 53
r 0.591958 2 3 ping 64 ------- 0 1.0 5.0 -1 50
+ 0.591958 3 5 ping 64 ------- 0 1.0 5.0 -1 50
- 0.591958 3 5 ping 64 ------- 0 1.0 5.0 -1 50
r 0.594129 3 5 ping 64 ------- 0 1.0 5.0 -1 48
r 0.602763 3 2 ping 64 ------- 0 4.0 0.0 -1 51
+ 0.602763 2 0 ping 64 ------- 0 4.0 0.0 -1 51
- 0.602763 2 0 ping 64 ------- 0 4.0 0.0 -1 51
r 0.6116 2 1 ping 6000 ------- 2 5.0 1.0 -1 27
+ 0.6116 1 2 ping 64 ------- 0 1.0 5.0 -1 57
- 0.6116 1 2 ping 64 ------- 0 1.0 5.0 -1 57
- 0.611636 3 4 ping 5000 ------- 1 0.0 4.0 -1 10
r 0.613856 1 2 ping 64 ------- 0 1.0 5.0 -1 54
+ 0.613856 2 3 ping 64 ------- 0 1.0 5.0 -1 54
- 0.613856 2 3 ping 64 ------- 0 1.0 5.0 -1 54
r 0.615958 2 3 ping 64 ------- 0 1.0 5.0 -1 52
+ 0.615958 3 5 ping 64 ------- 0 1.0 5.0 -1 52
- 0.615958 3 5 ping 64 ------- 0 1.0 5.0 -1 52
r 0.618129 3 5 ping 64 ------- 0 1.0 5.0 -1 49
r 0.63266 4 3 ping 64 ------- 0 4.0 0.0 -1 55
+ 0.63266 3 2 ping 64 ------- 0 4.0 0.0 -1 55
- 0.63266 3 2 ping 64 ------- 0 4.0 0.0 -1 55
r 0.637856 1 2 ping 64 ------- 0 1.0 5.0 -1 56
+ 0.637856 2 3 ping 64 ------- 0 1.0 5.0 -1 56
- 0.637856 2 3 ping 64 ------- 0 1.0 5.0 -1 56
r 0.639958 2 3 ping 64 ------- 0 1.0 5.0 -1 53
+ 0.639958 3 5 ping 64 ------- 0 1.0 5.0 -1 53
- 0.639958 3 5 ping 64 ------- 0 1.0 5.0 -1 53
r 0.642129 3 5 ping 64 ------- 0 1.0 5.0 -1 50
r 0.652809 2 0 ping 64 ------- 0 4.0 0.0 -1 51
r 0.661636 3 4 ping 5000 ------- 1 0.0 4.0 -1 8
+ 0.661636 4 3 ping 64 ------- 0 4.0 0.0 -1 58
- 0.661636 4 3 ping 64 ------- 0 4.0 0.0 -1 58
r 0.661856 1 2 ping 64 ------- 0 1.0 5.0 -1 57
+ 0.661856 2 3 ping 64 ------- 0 1.0 5.0 -1 57
- 0.661856 2 3 ping 64 ------- 0 1.0 5.0 -1 57
r 0.663958 2 3 ping 64 ------- 0 1.0 5.0 -1 54
+ 0.663958 3 5 ping 64 ------- 0 1.0 5.0 -1 54
- 0.663958 3 5 ping 64 ------- 0 1.0 5.0 -1 54
r 0.666129 3 5 ping 64 ------- 0 1.0 5.0 -1 52
r 0.682763 3 2 ping 64 ------- 0 4.0 0.0 -1 55
+ 0.682763 2 0 ping 64 ------- 0 4.0 0.0 -1 55
- 0.682763 2 0 ping 64 ------- 0 4.0 0.0 -1 55
r 0.687958 2 3 ping 64 ------- 0 1.0 5.0 -1 56
+ 0.687958 3 5 ping 64 ------- 0 1.0 5.0 -1 56
- 0.687958 3 5 ping 64 ------- 0 1.0 5.0 -1 56
r 0.690129 3 5 ping 64 ------- 0 1.0 5.0 -1 53
- 0.691636 3 4 ping 5000 ------- 1 0.0 4.0 -1 14
r 0.711958 2 3 ping 64 ------- 0 1.0 5.0 -1 57
+ 0.711958 3 5 ping 64 ------- 0 1.0 5.0 -1 57
- 0.711958 3 5 ping 64 ------- 0 1.0 5.0 -1 57
r 0.71266 4 3 ping 64 ------- 0 4.0 0.0 -1 58
+ 0.71266 3 2 ping 64 ------- 0 4.0 0.0 -1 58
- 0.71266 3 2 ping 64 ------- 0 4.0 0.0 -1 58
r 0.714129 3 5 ping 64 ------- 0 1.0 5.0 -1 54
r 0.732809 2 0 ping 64 ------- 0 4.0 0.0 -1 55
r 0.738129 3 5 ping 64 ------- 0 1.0 5.0 -1 56
r 0.741636 3 4 ping 5000 ------- 1 0.0 4.0 -1 10
+ 0.741636 4 3 ping 64 ------- 0 4.0 0.0 -1 59
- 0.741636 4 3 ping 64 ------- 0 4.0 0.0 -1 59
r 0.762129 3 5 ping 64 ------- 0 1.0 5.0 -1 57
r 0.762763 3 2 ping 64 ------- 0 4.0 0.0 -1 58
+ 0.762763 2 0 ping 64 ------- 0 4.0 0.0 -1 58
- 0.762763 2 0 ping 64 ------- 0 4.0 0.0 -1 58
- 0.771636 3 4 ping 5000 ------- 1 0.0 4.0 -1 18
r 0.79266 4 3 ping 64 ------- 0 4.0 0.0 -1 59
+ 0.79266 3 2 ping 64 ------- 0 4.0 0.0 -1 59
- 0.79266 3 2 ping 64 ------- 0 4.0 0.0 -1 59
r 0.812809 2 0 ping 64 ------- 0 4.0 0.0 -1 58
r 0.821636 3 4 ping 5000 ------- 1 0.0 4.0 -1 14
+ 0.821636 4 3 ping 64 ------- 0 4.0 0.0 -1 60
- 0.821636 4 3 ping 64 ------- 0 4.0 0.0 -1 60
r 0.842763 3 2 ping 64 ------- 0 4.0 0.0 -1 59
+ 0.842763 2 0 ping 64 ------- 0 4.0 0.0 -1 59
- 0.842763 2 0 ping 64 ------- 0 4.0 0.0 -1 59
r 0.87266 4 3 ping 64 ------- 0 4.0 0.0 -1 60
+ 0.87266 3 2 ping 64 ------- 0 4.0 0.0 -1 60
- 0.87266 3 2 ping 64 ------- 0 4.0 0.0 -1 60
r 0.892809 2 0 ping 64 ------- 0 4.0 0.0 -1 59
r 0.901636 3 4 ping 5000 ------- 1 0.0 4.0 -1 18
+ 0.901636 4 3 ping 64 ------- 0 4.0 0.0 -1 61
- 0.901636 4 3 ping 64 ------- 0 4.0 0.0 -1 61
r 0.922763 3 2 ping 64 ------- 0 4.0 0.0 -1 60
+ 0.922763 2 0 ping 64 ------- 0 4.0 0.0 -1 60
- 0.922763 2 0 ping 64 ------- 0 4.0 0.0 -1 60
r 0.95266 4 3 ping 64 ------- 0 4.0 0.0 -1 61
+ 0.95266 3 2 ping 64 ------- 0 4.0 0.0 -1 61
- 0.95266 3 2 ping 64 ------- 0 4.0 0.0 -1 61
r 0.972809 2 0 ping 64 ------- 0 4.0 0.0 -1 60
r 1.002763 3 2 ping 64 ------- 0 4.0 0.0 -1 61
+ 1.002763 2 0 ping 64 ------- 0 4.0 0.0 -1 61
- 1.002763 2 0 ping 64 ------- 0 4.0 0.0 -1 61
r 1.052809 2 0 ping 64 ------- 0 4.0 0.0 -1 61
