+ 0.1 0 2 ping 5000 ------- 1 0.0 4.0 -1 0
- 0.1 0 2 ping 5000 ------- 1 0.0 4.0 -1 0
+ 0.1 5 3 ping 6000 ------- 2 5.0 1.0 -1 1
- 0.1 5 3 ping 6000 ------- 2 5.0 1.0 -1 1
+ 0.1 0 2 ping 5000 ------- 1 0.0 4.0 -1 2
+ 0.1 5 3 ping 6000 ------- 2 5.0 1.0 -1 3
+ 0.1 0 2 ping 5000 ------- 1 0.0 4.0 -1 4
+ 0.1 5 3 ping 6000 ------- 2 5.0 1.0 -1 5
+ 0.1 0 2 ping 5000 ------- 1 0.0 4.0 -1 6
+ 0.1 5 3 ping 6000 ------- 2 5.0 1.0 -1 7
+ 0.1 0 2 ping 5000 ------- 1 0.0 4.0 -1 8
+ 0.1 5 3 ping 6000 ------- 2 5.0 1.0 -1 9
d 0.1 5 3 ping 6000 ------- 2 5.0 1.0 -1 9
+ 0.1 0 2 ping 5000 ------- 1 0.0 4.0 -1 10
+ 0.1 5 3 ping 6000 ------- 2 5.0 1.0 -1 11
d 0.1 5 3 ping 6000 ------- 2 5.0 1.0 -1 11
+ 0.1 0 2 ping 5000 ------- 1 0.0 4.0 -1 12
+ 0.1 5 3 ping 6000 ------- 2 5.0 1.0 -1 13
d 0.1 5 3 ping 6000 ------- 2 5.0 1.0 -1 13
+ 0.1 0 2 ping 5000 ------- 1 0.0 4.0 -1 14
+ 0.1 5 3 ping 6000 ------- 2 5.0 1.0 -1 15
d 0.1 5 3 ping 6000 ------- 2 5.0 1.0 -1 15
+ 0.1 0 2 ping 5000 ------- 1 0.0 4.0 -1 16
+ 0.1 5 3 ping 6000 ------- 2 5.0 1.0 -1 17
d 0.1 5 3 ping 6000 ------- 2 5.0 1.0 -1 17
+ 0.1 0 2 ping 5000 ------- 1 0.0 4.0 -1 18
+ 0.1 5 3 ping 6000 ------- 2 5.0 1.0 -1 19
d 0.1 5 3 ping 6000 ------- 2 5.0 1.0 -1 19
+ 0.1 0 2 ping 5000 ------- 1 0.0 4.0 -1 20
+ 0.1 5 3 ping 6000 ------- 2 5.0 1.0 -1 21
d 0.1 5 3 ping 6000 ------- 2 5.0 1.0 -1 21
+ 0.1 0 2 ping 5000 ------- 1 0.0 4.0 -1 22
+ 0.1 5 3 ping 6000 ------- 2 5.0 1.0 -1 23
d 0.1 5 3 ping 6000 ------- 2 5.0 1.0 -1 23
+ 0.1 0 2 ping 5000 ------- 1 0.0 4.0 -1 24
+ 0.1 5 3 ping 6000 ------- 2 5.0 1.0 -1 25
d 0.1 5 3 ping 6000 ------- 2 5.0 1.0 -1 25
+ 0.1 0 2 ping 5000 ------- 1 0.0 4.0 -1 26
+ 0.1 5 3 ping 6000 ------- 2 5.0 1.0 -1 27
d 0.1 5 3 ping 6000 ------- 2 5.0 1.0 -1 27
+ 0.1 0 2 ping 5000 ------- 1 0.0 4.0 -1 28
+ 0.1 5 3 ping 6000 ------- 2 5.0 1.0 -1 29
d 0.1 5 3 ping 6000 ------- 2 5.0 1.0 -1 29
+ 0.1 0 2 ping 5000 ------- 1 0.0 4.0 -1 30
+ 0.1 5 3 ping 6000 ------- 2 5.0 1.0 -1 31
d 0.1 5 3 ping 6000 ------- 2 5.0 1.0 -1 31
+ 0.1 0 2 ping 5000 ------- 1 0.0 4.0 -1 32
+ 0.1 5 3 ping 6000 ------- 2 5.0 1.0 -1 33
d 0.1 5 3 ping 6000 ------- 2 5.0 1.0 -1 33
+ 0.1 0 2 ping 5000 ------- 1 0.0 4.0 -1 34
+ 0.1 5 3 ping 6000 ------- 2 5.0 1.0 -1 35
d 0.1 5 3 ping 6000 ------- 2 5.0 1.0 -1 35
+ 0.1 0 2 ping 5000 ------- 1 0.0 4.0 -1 36
+ 0.1 5 3 ping 6000 ------- 2 5.0 1.0 -1 37
d 0.1 5 3 ping 6000 ------- 2 5.0 1.0 -1 37
+ 0.1 0 2 ping 5000 ------- 1 0.0 4.0 -1 38
+ 0.1 5 3 ping 6000 ------- 2 5.0 1.0 -1 39
d 0.1 5 3 ping 6000 ------- 2 5.0 1.0 -1 39
+ 0.1 0 2 ping 5000 ------- 1 0.0 4.0 -1 40
d 0.1 0 2 ping 5000 ------- 1 0.0 4.0 -1 40
+ 0.1 5 3 ping 6000 ------- 2 5.0 1.0 -1 41
d 0.1 5 3 ping 6000 ------- 2 5.0 1.0 -1 41
+ 0.1 0 2 ping 5000 ------- 1 0.0 4.0 -1 42
d 0.1 0 2 ping 5000 ------- 1 0.0 4.0 -1 42
+ 0.1 5 3 ping 6000 ------- 2 5.0 1.0 -1 43
d 0.1 5 3 ping 6000 ------- 2 5.0 1.0 -1 43
+ 0.1 0 2 ping 5000 ------- 1 0.0 4.0 -1 44
d 0.1 0 2 ping 5000 ------- 1 0.0 4.0 -1 44
+ 0.1 5 3 ping 6000 ------- 2 5.0 1.0 -1 45
d 0.1 5 3 ping 6000 ------- 2 5.0 1.0 -1 45
+ 0.1 0 2 ping 5000 ------- 1 0.0 4.0 -1 46
d 0.1 0 2 ping 5000 ------- 1 0.0 4.0 -1 46
+ 0.1 5 3 ping 6000 ------- 2 5.0 1.0 -1 47
d 0.1 5 3 ping 6000 ------- 2 5.0 1.0 -1 47
+ 0.1 0 2 ping 5000 ------- 1 0.0 4.0 -1 48
d 0.1 0 2 ping 5000 ------- 1 0.0 4.0 -1 48
+ 0.1 5 3 ping 6000 ------- 2 5.0 1.0 -1 49
d 0.1 5 3 ping 6000 ------- 2 5.0 1.0 -1 49
+ 0.1 0 2 ping 5000 ------- 1 0.0 4.0 -1 50
d 0.1 0 2 ping 5000 ------- 1 0.0 4.0 -1 50
+ 0.1 5 3 ping 6000 ------- 2 5.0 1.0 -1 51
d 0.1 5 3 ping 6000 ------- 2 5.0 1.0 -1 51
+ 0.1 0 2 ping 5000 ------- 1 0.0 4.0 -1 52
d 0.1 0 2 ping 5000 ------- 1 0.0 4.0 -1 52
+ 0.1 5 3 ping 6000 ------- 2 5.0 1.0 -1 53
d 0.1 5 3 ping 6000 ------- 2 5.0 1.0 -1 53
+ 0.1 0 2 ping 5000 ------- 1 0.0 4.0 -1 54
d 0.1 0 2 ping 5000 ------- 1 0.0 4.0 -1 54
+ 0.1 5 3 ping 6000 ------- 2 5.0 1.0 -1 55
d 0.1 5 3 ping 6000 ------- 2 5.0 1.0 -1 55
+ 0.1 0 2 ping 5000 ------- 1 0.0 4.0 -1 56
d 0.1 0 2 ping 5000 ------- 1 0.0 4.0 -1 56
+ 0.1 5 3 ping 6000 ------- 2 5.0 1.0 -1 57
d 0.1 5 3 ping 6000 ------- 2 5.0 1.0 -1 57
+ 0.1 0 2 ping 5000 ------- 1 0.0 4.0 -1 58
d 0.1 0 2 ping 5000 ------- 1 0.0 4.0 -1 58
+ 0.1 5 3 ping 6000 ------- 2 5.0 1.0 -1 59
d 0.1 5 3 ping 6000 ------- 2 5.0 1.0 -1 59
- 0.106 5 3 ping 6000 ------- 2 5.0 1.0 -1 3
- 0.112 5 3 ping 6000 ------- 2 5.0 1.0 -1 5
- 0.118 5 3 ping 6000 ------- 2 5.0 1.0 -1 7
- 0.12 0 2 ping 5000 ------- 1 0.0 4.0 -1 2
- 0.14 0 2 ping 5000 ------- 1 0.0 4.0 -1 4
r 0.156 5 3 ping 6000 ------- 2 5.0 1.0 -1 1
+ 0.156 3 2 ping 6000 ------- 2 5.0 1.0 -1 1
- 0.156 3 2 ping 6000 ------- 2 5.0 1.0 -1 1
- 0.16 0 2 ping 5000 ------- 1 0.0 4.0 -1 6
r 0.162 5 3 ping 6000 ------- 2 5.0 1.0 -1 3
+ 0.162 3 2 ping 6000 ------- 2 5.0 1.0 -1 3
- 0.162 3 2 ping 6000 ------- 2 5.0 1.0 -1 3
r 0.168 5 3 ping 6000 ------- 2 5.0 1.0 -1 5
+ 0.168 3 2 ping 6000 ------- 2 5.0 1.0 -1 5
- 0.168 3 2 ping 6000 ------- 2 5.0 1.0 -1 5
r 0.17 0 2 ping 5000 ------- 1 0.0 4.0 -1 0
+ 0.17 2 3 ping 5000 ------- 1 0.0 4.0 -1 0
- 0.17 2 3 ping 5000 ------- 1 0.0 4.0 -1 0
r 0.174 5 3 ping 6000 ------- 2 5.0 1.0 -1 7
+ 0.174 3 2 ping 6000 ------- 2 5.0 1.0 -1 7
- 0.174 3 2 ping 6000 ------- 2 5.0 1.0 -1 7
- 0.18 0 2 ping 5000 ------- 1 0.0 4.0 -1 8
r 0.19 0 2 ping 5000 ------- 1 0.0 4.0 -1 2
+ 0.19 2 3 ping 5000 ------- 1 0.0 4.0 -1 2
- 0.19 2 3 ping 5000 ------- 1 0.0 4.0 -1 2
- 0.2 0 2 ping 5000 ------- 1 0.0 4.0 -1 10
r 0.21 0 2 ping 5000 ------- 1 0.0 4.0 -1 4
+ 0.21 2 3 ping 5000 ------- 1 0.0 4.0 -1 4
- 0.21 2 3 ping 5000 ------- 1 0.0 4.0 -1 4
r 0.2108 3 2 ping 6000 ------- 2 5.0 1.0 -1 1
+ 0.2108 2 1 ping 6000 ------- 2 5.0 1.0 -1 1
- 0.2108 2 1 ping 6000 ------- 2 5.0 1.0 -1 1
r 0.2168 3 2 ping 6000 ------- 2 5.0 1.0 -1 3
+ 0.2168 2 1 ping 6000 ------- 2 5.0 1.0 -1 3
- 0.2168 2 1 ping 6000 ------- 2 5.0 1.0 -1 3
- 0.22 0 2 ping 5000 ------- 1 0.0 4.0 -1 12
r 0.2228 3 2 ping 6000 ------- 2 5.0 1.0 -1 5
+ 0.2228 2 1 ping 6000 ------- 2 5.0 1.0 -1 5
- 0.2228 2 1 ping 6000 ------- 2 5.0 1.0 -1 5
r 0.224 2 3 ping 5000 ------- 1 0.0 4.0 -1 0
+ 0.224 3 4 ping 5000 ------- 1 0.0 4.0 -1 0
- 0.224 3 4 ping 5000 ------- 1 0.0 4.0 -1 0
r 0.2288 3 2 ping 6000 ------- 2 5.0 1.0 -1 7
+ 0.2288 2 1 ping 6000 ------- 2 5.0 1.0 -1 7
- 0.2288 2 1 ping 6000 ------- 2 5.0 1.0 -1 7
r 0.23 0 2 ping 5000 ------- 1 0.0 4.0 -1 6
+ 0.23 2 3 ping 5000 ------- 1 0.0 4.0 -1 6
- 0.23 2 3 ping 5000 ------- 1 0.0 4.0 -1 6
- 0.24 0 2 ping 5000 ------- 1 0.0 4.0 -1 14
r 0.244 2 3 ping 5000 ------- 1 0.0 4.0 -1 2
+ 0.244 3 4 ping 5000 ------- 1 0.0 4.0 -1 2
- 0.244 3 4 ping 5000 ------- 1 0.0 4.0 -1 2
r 0.25 0 2 ping 5000 ------- 1 0.0 4.0 -1 8
+ 0.25 2 3 ping 5000 ------- 1 0.0 4.0 -1 8
- 0.25 2 3 ping 5000 ------- 1 0.0 4.0 -1 8
- 0.26 0 2 ping 5000 ------- 1 0.0 4.0 -1 16
r 0.264 2 3 ping 5000 ------- 1 0.0 4.0 -1 4
+ 0.264 3 4 ping 5000 ------- 1 0.0 4.0 -1 4
- 0.264 3 4 ping 5000 ------- 1 0.0 4.0 -1 4
r 0.266133 2 1 ping 6000 ------- 2 5.0 1.0 -1 1
+ 0.266133 1 2 ping 64 ------- 0 1.0 5.0 -1 60
- 0.266133 1 2 ping 64 ------- 0 1.0 5.0 -1 60
r 0.27 0 2 ping 5000 ------- 1 0.0 4.0 -1 10
+ 0.27 2 3 ping 5000 ------- 1 0.0 4.0 -1 10
- 0.27 2 3 ping 5000 ------- 1 0.0 4.0 -1 10
r 0.272133 2 1 ping 6000 ------- 2 5.0 1.0 -1 3
+ 0.272133 1 2 ping 64 ------- 0 1.0 5.0 -1 61
- 0.272133 1 2 ping 64 ------- 0 1.0 5.0 -1 61
r 0.278133 2 1 ping 6000 ------- 2 5.0 1.0 -1 5
+ 0.278133 1 2 ping 64 ------- 0 1.0 5.0 -1 62
- 0.278133 1 2 ping 64 ------- 0 1.0 5.0 -1 62
- 0.28 0 2 ping 5000 ------- 1 0.0 4.0 -1 18
r 0.282 3 4 ping 5000 ------- 1 0.0 4.0 -1 0
+ 0.282 4 3 ping 64 ------- 0 4.0 0.0 -1 63
- 0.282 4 3 ping 64 ------- 0 4.0 0.0 -1 63
r 0.284 2 3 ping 5000 ------- 1 0.0 4.0 -1 6
+ 0.284 3 4 ping 5000 ------- 1 0.0 4.0 -1 6
- 0.284 3 4 ping 5000 ------- 1 0.0 4.0 -1 6
r 0.284133 2 1 ping 6000 ------- 2 5.0 1.0 -1 7
+ 0.284133 1 2 ping 64 ------- 0 1.0 5.0 -1 64
- 0.284133 1 2 ping 64 ------- 0 1.0 5.0 -1 64
r 0.29 0 2 ping 5000 ------- 1 0.0 4.0 -1 12
+ 0.29 2 3 ping 5000 ------- 1 0.0 4.0 -1 12
- 0.29 2 3 ping 5000 ------- 1 0.0 4.0 -1 12
- 0.3 0 2 ping 5000 ------- 1 0.0 4.0 -1 20
r 0.302 3 4 ping 5000 ------- 1 0.0 4.0 -1 2
+ 0.302 4 3 ping 64 ------- 0 4.0 0.0 -1 65
- 0.302 4 3 ping 64 ------- 0 4.0 0.0 -1 65
r 0.304 2 3 ping 5000 ------- 1 0.0 4.0 -1 8
+ 0.304 3 4 ping 5000 ------- 1 0.0 4.0 -1 8
- 0.304 3 4 ping 5000 ------- 1 0.0 4.0 -1 8
r 0.31 0 2 ping 5000 ------- 1 0.0 4.0 -1 14
+ 0.31 2 3 ping 5000 ------- 1 0.0 4.0 -1 14
- 0.31 2 3 ping 5000 ------- 1 0.0 4.0 -1 14
r 0.31619 1 2 ping 64 ------- 0 1.0 5.0 -1 60
+ 0.31619 2 3 ping 64 ------- 0 1.0 5.0 -1 60
- 0.31619 2 3 ping 64 ------- 0 1.0 5.0 -1 60
- 0.32 0 2 ping 5000 ------- 1 0.0 4.0 -1 22
r 0.322 3 4 ping 5000 ------- 1 0.0 4.0 -1 4
+ 0.322 4 3 ping 64 ------- 0 4.0 0.0 -1 66
- 0.322 4 3 ping 64 ------- 0 4.0 0.0 -1 66
r 0.32219 1 2 ping 64 ------- 0 1.0 5.0 -1 61
+ 0.32219 2 3 ping 64 ------- 0 1.0 5.0 -1 61
- 0.32219 2 3 ping 64 ------- 0 1.0 5.0 -1 61
r 0.324 2 3 ping 5000 ------- 1 0.0 4.0 -1 10
+ 0.324 3 4 ping 5000 ------- 1 0.0 4.0 -1 10
- 0.324 3 4 ping 5000 ------- 1 0.0 4.0 -1 10
r 0.32819 1 2 ping 64 ------- 0 1.0 5.0 -1 62
+ 0.32819 2 3 ping 64 ------- 0 1.0 5.0 -1 62
- 0.32819 2 3 ping 64 ------- 0 1.0 5.0 -1 62
r 0.33 0 2 ping 5000 ------- 1 0.0 4.0 -1 16
+ 0.33 2 3 ping 5000 ------- 1 0.0 4.0 -1 16
- 0.33 2 3 ping 5000 ------- 1 0.0 4.0 -1 16
r 0.332102 4 3 ping 64 ------- 0 4.0 0.0 -1 63
+ 0.332102 3 2 ping 64 ------- 0 4.0 0.0 -1 63
- 0.332102 3 2 ping 64 ------- 0 4.0 0.0 -1 63
r 0.33419 1 2 ping 64 ------- 0 1.0 5.0 -1 64
+ 0.33419 2 3 ping 64 ------- 0 1.0 5.0 -1 64
- 0.33419 2 3 ping 64 ------- 0 1.0 5.0 -1 64
- 0.34 0 2 ping 5000 ------- 1 0.0 4.0 -1 24
r 0.342 3 4 ping 5000 ------- 1 0.0 4.0 -1 6
+ 0.342 4 3 ping 64 ------- 0 4.0 0.0 -1 67
- 0.342 4 3 ping 64 ------- 0 4.0 0.0 -1 67
r 0.344 2 3 ping 5000 ------- 1 0.0 4.0 -1 12
+ 0.344 3 4 ping 5000 ------- 1 0.0 4.0 -1 12
- 0.344 3 4 ping 5000 ------- 1 0.0 4.0 -1 12
r 0.35 0 2 ping 5000 ------- 1 0.0 4.0 -1 18
+ 0.35 2 3 ping 5000 ------- 1 0.0 4.0 -1 18
- 0.35 2 3 ping 5000 ------- 1 0.0 4.0 -1 18
r 0.352102 4 3 ping 64 ------- 0 4.0 0.0 -1 65
+ 0.352102 3 2 ping 64 ------- 0 4.0 0.0 -1 65
- 0.352102 3 2 ping 64 ------- 0 4.0 0.0 -1 65
- 0.36 0 2 ping 5000 ------- 1 0.0 4.0 -1 26
r 0.362 3 4 ping 5000 ------- 1 0.0 4.0 -1 8
+ 0.362 4 3 ping 64 ------- 0 4.0 0.0 -1 68
- 0.362 4 3 ping 64 ------- 0 4.0 0.0 -1 68
r 0.364 2 3 ping 5000 ------- 1 0.0 4.0 -1 14
+ 0.364 3 4 ping 5000 ------- 1 0.0 4.0 -1 14
- 0.364 3 4 ping 5000 ------- 1 0.0 4.0 -1 14
r 0.366241 2 3 ping 64 ------- 0 1.0 5.0 -1 60
+ 0.366241 3 5 ping 64 ------- 0 1.0 5.0 -1 60
- 0.366241 3 5 ping 64 ------- 0 1.0 5.0 -1 60
r 0.37 0 2 ping 5000 ------- 1 0.0 4.0 -1 20
+ 0.37 2 3 ping 5000 ------- 1 0.0 4.0 -1 20
- 0.37 2 3 ping 5000 ------- 1 0.0 4.0 -1 20
r 0.372102 4 3 ping 64 ------- 0 4.0 0.0 -1 66
+ 0.372102 3 2 ping 64 ------- 0 4.0 0.0 -1 66
- 0.372102 3 2 ping 64 ------- 0 4.0 0.0 -1 66
r 0.372241 2 3 ping 64 ------- 0 1.0 5.0 -1 61
+ 0.372241 3 5 ping 64 ------- 0 1.0 5.0 -1 61
- 0.372241 3 5 ping 64 ------- 0 1.0 5.0 -1 61
r 0.378241 2 3 ping 64 ------- 0 1.0 5.0 -1 62
+ 0.378241 3 5 ping 64 ------- 0 1.0 5.0 -1 62
- 0.378241 3 5 ping 64 ------- 0 1.0 5.0 -1 62
- 0.38 0 2 ping 5000 ------- 1 0.0 4.0 -1 28
r 0.382 3 4 ping 5000 ------- 1 0.0 4.0 -1 10
+ 0.382 4 3 ping 64 ------- 0 4.0 0.0 -1 69
- 0.382 4 3 ping 64 ------- 0 4.0 0.0 -1 69
r 0.382154 3 2 ping 64 ------- 0 4.0 0.0 -1 63
+ 0.382154 2 0 ping 64 ------- 0 4.0 0.0 -1 63
- 0.382154 2 0 ping 64 ------- 0 4.0 0.0 -1 63
r 0.384 2 3 ping 5000 ------- 1 0.0 4.0 -1 16
+ 0.384 3 4 ping 5000 ------- 1 0.0 4.0 -1 16
- 0.384 3 4 ping 5000 ------- 1 0.0 4.0 -1 16
r 0.384241 2 3 ping 64 ------- 0 1.0 5.0 -1 64
+ 0.384241 3 5 ping 64 ------- 0 1.0 5.0 -1 64
- 0.384241 3 5 ping 64 ------- 0 1.0 5.0 -1 64
r 0.39 0 2 ping 5000 ------- 1 0.0 4.0 -1 22
+ 0.39 2 3 ping 5000 ------- 1 0.0 4.0 -1 22
- 0.39 2 3 ping 5000 ------- 1 0.0 4.0 -1 22
r 0.392102 4 3 ping 64 ------- 0 4.0 0.0 -1 67
+ 0.392102 3 2 ping 64 ------- 0 4.0 0.0 -1 67
- 0.392102 3 2 ping 64 ------- 0 4.0 0.0 -1 67
- 0.4 0 2 ping 5000 ------- 1 0.0 4.0 -1 30
r 0.402 3 4 ping 5000 ------- 1 0.0 4.0 -1 12
+ 0.402 4 3 ping 64 ------- 0 4.0 0.0 -1 70
- 0.402 4 3 ping 64 ------- 0 4.0 0.0 -1 70
r 0.402154 3 2 ping 64 ------- 0 4.0 0.0 -1 65
+ 0.402154 2 0 ping 64 ------- 0 4.0 0.0 -1 65
- 0.402154 2 0 ping 64 ------- 0 4.0 0.0 -1 65
r 0.404 2 3 ping 5000 ------- 1 0.0 4.0 -1 18
+ 0.404 3 4 ping 5000 ------- 1 0.0 4.0 -1 18
- 0.404 3 4 ping 5000 ------- 1 0.0 4.0 -1 18
r 0.41 0 2 ping 5000 ------- 1 0.0 4.0 -1 24
+ 0.41 2 3 ping 5000 ------- 1 0.0 4.0 -1 24
- 0.41 2 3 ping 5000 ------- 1 0.0 4.0 -1 24
r 0.412102 4 3 ping 64 ------- 0 4.0 0.0 -1 68
+ 0.412102 3 2 ping 64 ------- 0 4.0 0.0 -1 68
- 0.412102 3 2 ping 64 ------- 0 4.0 0.0 -1 68
r 0.416305 3 5 ping 64 ------- 0 1.0 5.0 -1 60
- 0.42 0 2 ping 5000 ------- 1 0.0 4.0 -1 32
r 0.422 3 4 ping 5000 ------- 1 0.0 4.0 -1 14
+ 0.422 4 3 ping 64 ------- 0 4.0 0.0 -1 71
- 0.422 4 3 ping 64 ------- 0 4.0 0.0 -1 71
r 0.422154 3 2 ping 64 ------- 0 4.0 0.0 -1 66
+ 0.422154 2 0 ping 64 ------- 0 4.0 0.0 -1 66
- 0.422154 2 0 ping 64 ------- 0 4.0 0.0 -1 66
r 0.422305 3 5 ping 64 ------- 0 1.0 5.0 -1 61
r 0.424 2 3 ping 5000 ------- 1 0.0 4.0 -1 20
+ 0.424 3 4 ping 5000 ------- 1 0.0 4.0 -1 20
- 0.424 3 4 ping 5000 ------- 1 0.0 4.0 -1 20
r 0.428305 3 5 ping 64 ------- 0 1.0 5.0 -1 62
r 0.43 0 2 ping 5000 ------- 1 0.0 4.0 -1 26
+ 0.43 2 3 ping 5000 ------- 1 0.0 4.0 -1 26
- 0.43 2 3 ping 5000 ------- 1 0.0 4.0 -1 26
r 0.432102 4 3 ping 64 ------- 0 4.0 0.0 -1 69
+ 0.432102 3 2 ping 64 ------- 0 4.0 0.0 -1 69
- 0.432102 3 2 ping 64 ------- 0 4.0 0.0 -1 69
r 0.43241 2 0 ping 64 ------- 0 4.0 0.0 -1 63
r 0.434305 3 5 ping 64 ------- 0 1.0 5.0 -1 64
- 0.44 0 2 ping 5000 ------- 1 0.0 4.0 -1 34
r 0.442 3 4 ping 5000 ------- 1 0.0 4.0 -1 16
+ 0.442 4 3 ping 64 ------- 0 4.0 0.0 -1 72
- 0.442 4 3 ping 64 ------- 0 4.0 0.0 -1 72
r 0.442154 3 2 ping 64 ------- 0 4.0 0.0 -1 67
+ 0.442154 2 0 ping 64 ------- 0 4.0 0.0 -1 67
- 0.442154 2 0 ping 64 ------- 0 4.0 0.0 -1 67
r 0.444 2 3 ping 5000 ------- 1 0.0 4.0 -1 22
+ 0.444 3 4 ping 5000 ------- 1 0.0 4.0 -1 22
- 0.444 3 4 ping 5000 ------- 1 0.0 4.0 -1 22
r 0.45 0 2 ping 5000 ------- 1 0.0 4.0 -1 28
+ 0.45 2 3 ping 5000 ------- 1 0.0 4.0 -1 28
- 0.45 2 3 ping 5000 ------- 1 0.0 4.0 -1 28
r 0.452102 4 3 ping 64 ------- 0 4.0 0.0 -1 70
+ 0.452102 3 2 ping 64 ------- 0 4.0 0.0 -1 70
- 0.452102 3 2 ping 64 ------- 0 4.0 0.0 -1 70
r 0.45241 2 0 ping 64 ------- 0 4.0 0.0 -1 65
- 0.46 0 2 ping 5000 ------- 1 0.0 4.0 -1 36
r 0.462 3 4 ping 5000 ------- 1 0.0 4.0 -1 18
+ 0.462 4 3 ping 64 ------- 0 4.0 0.0 -1 73
- 0.462 4 3 ping 64 ------- 0 4.0 0.0 -1 73
r 0.462154 3 2 ping 64 ------- 0 4.0 0.0 -1 68
+ 0.462154 2 0 ping 64 ------- 0 4.0 0.0 -1 68
- 0.462154 2 0 ping 64 ------- 0 4.0 0.0 -1 68
r 0.464 2 3 ping 5000 ------- 1 0.0 4.0 -1 24
+ 0.464 3 4 ping 5000 ------- 1 0.0 4.0 -1 24
- 0.464 3 4 ping 5000 ------- 1 0.0 4.0 -1 24
r 0.47 0 2 ping 5000 ------- 1 0.0 4.0 -1 30
+ 0.47 2 3 ping 5000 ------- 1 0.0 4.0 -1 30
- 0.47 2 3 ping 5000 ------- 1 0.0 4.0 -1 30
r 0.472102 4 3 ping 64 ------- 0 4.0 0.0 -1 71
+ 0.472102 3 2 ping 64 ------- 0 4.0 0.0 -1 71
- 0.472102 3 2 ping 64 ------- 0 4.0 0.0 -1 71
r 0.47241 2 0 ping 64 ------- 0 4.0 0.0 -1 66
- 0.48 0 2 ping 5000 ------- 1 0.0 4.0 -1 38
r 0.482 3 4 ping 5000 ------- 1 0.0 4.0 -1 20
+ 0.482 4 3 ping 64 ------- 0 4.0 0.0 -1 74
- 0.482 4 3 ping 64 ------- 0 4.0 0.0 -1 74
r 0.482154 3 2 ping 64 ------- 0 4.0 0.0 -1 69
+ 0.482154 2 0 ping 64 ------- 0 4.0 0.0 -1 69
- 0.482154 2 0 ping 64 ------- 0 4.0 0.0 -1 69
r 0.484 2 3 ping 5000 ------- 1 0.0 4.0 -1 26
+ 0.484 3 4 ping 5000 ------- 1 0.0 4.0 -1 26
- 0.484 3 4 ping 5000 ------- 1 0.0 4.0 -1 26
r 0.49 0 2 ping 5000 ------- 1 0.0 4.0 -1 32
+ 0.49 2 3 ping 5000 ------- 1 0.0 4.0 -1 32
- 0.49 2 3 ping 5000 ------- 1 0.0 4.0 -1 32
r 0.492102 4 3 ping 64 ------- 0 4.0 0.0 -1 72
+ 0.492102 3 2 ping 64 ------- 0 4.0 0.0 -1 72
- 0.492102 3 2 ping 64 ------- 0 4.0 0.0 -1 72
r 0.49241 2 0 ping 64 ------- 0 4.0 0.0 -1 67
r 0.502 3 4 ping 5000 ------- 1 0.0 4.0 -1 22
+ 0.502 4 3 ping 64 ------- 0 4.0 0.0 -1 75
- 0.502 4 3 ping 64 ------- 0 4.0 0.0 -1 75
r 0.502154 3 2 ping 64 ------- 0 4.0 0.0 -1 70
+ 0.502154 2 0 ping 64 ------- 0 4.0 0.0 -1 70
- 0.502154 2 0 ping 64 ------- 0 4.0 0.0 -1 70
r 0.504 2 3 ping 5000 ------- 1 0.0 4.0 -1 28
+ 0.504 3 4 ping 5000 ------- 1 0.0 4.0 -1 28
- 0.504 3 4 ping 5000 ------- 1 0.0 4.0 -1 28
r 0.51 0 2 ping 5000 ------- 1 0.0 4.0 -1 34
+ 0.51 2 3 ping 5000 ------- 1 0.0 4.0 -1 34
- 0.51 2 3 ping 5000 ------- 1 0.0 4.0 -1 34
r 0.512102 4 3 ping 64 ------- 0 4.0 0.0 -1 73
+ 0.512102 3 2 ping 64 ------- 0 4.0 0.0 -1 73
- 0.512102 3 2 ping 64 ------- 0 4.0 0.0 -1 73
r 0.51241 2 0 ping 64 ------- 0 4.0 0.0 -1 68
r 0.522 3 4 ping 5000 ------- 1 0.0 4.0 -1 24
+ 0.522 4 3 ping 64 ------- 0 4.0 0.0 -1 76
- 0.522 4 3 ping 64 ------- 0 4.0 0.0 -1 76
r 0.522154 3 2 ping 64 ------- 0 4.0 0.0 -1 71
+ 0.522154 2 0 ping 64 ------- 0 4.0 0.0 -1 71
- 0.522154 2 0 ping 64 ------- 0 4.0 0.0 -1 71
r 0.524 2 3 ping 5000 ------- 1 0.0 4.0 -1 30
+ 0.524 3 4 ping 5000 ------- 1 0.0 4.0 -1 30
- 0.524 3 4 ping 5000 ------- 1 0.0 4.0 -1 30
r 0.53 0 2 ping 5000 ------- 1 0.0 4.0 -1 36
+ 0.53 2 3 ping 5000 ------- 1 0.0 4.0 -1 36
- 0.53 2 3 ping 5000 ------- 1 0.0 4.0 -1 36
r 0.532102 4 3 ping 64 ------- 0 4.0 0.0 -1 74
+ 0.532102 3 2 ping 64 ------- 0 4.0 0.0 -1 74
- 0.532102 3 2 ping 64 ------- 0 4.0 0.0 -1 74
r 0.53241 2 0 ping 64 ------- 0 4.0 0.0 -1 69
r 0.542 3 4 ping 5000 ------- 1 0.0 4.0 -1 26
+ 0.542 4 3 ping 64 ------- 0 4.0 0.0 -1 77
- 0.542 4 3 ping 64 ------- 0 4.0 0.0 -1 77
r 0.542154 3 2 ping 64 ------- 0 4.0 0.0 -1 72
+ 0.542154 2 0 ping 64 ------- 0 4.0 0.0 -1 72
- 0.542154 2 0 ping 64 ------- 0 4.0 0.0 -1 72
r 0.544 2 3 ping 5000 ------- 1 0.0 4.0 -1 32
+ 0.544 3 4 ping 5000 ------- 1 0.0 4.0 -1 32
- 0.544 3 4 ping 5000 ------- 1 0.0 4.0 -1 32
r 0.55 0 2 ping 5000 ------- 1 0.0 4.0 -1 38
+ 0.55 2 3 ping 5000 ------- 1 0.0 4.0 -1 38
- 0.55 2 3 ping 5000 ------- 1 0.0 4.0 -1 38
r 0.552102 4 3 ping 64 ------- 0 4.0 0.0 -1 75
+ 0.552102 3 2 ping 64 ------- 0 4.0 0.0 -1 75
- 0.552102 3 2 ping 64 ------- 0 4.0 0.0 -1 75
r 0.55241 2 0 ping 64 ------- 0 4.0 0.0 -1 70
r 0.562 3 4 ping 5000 ------- 1 0.0 4.0 -1 28
+ 0.562 4 3 ping 64 ------- 0 4.0 0.0 -1 78
- 0.562 4 3 ping 64 ------- 0 4.0 0.0 -1 78
r 0.562154 3 2 ping 64 ------- 0 4.0 0.0 -1 73
+ 0.562154 2 0 ping 64 ------- 0 4.0 0.0 -1 73
- 0.562154 2 0 ping 64 ------- 0 4.0 0.0 -1 73
r 0.564 2 3 ping 5000 ------- 1 0.0 4.0 -1 34
+ 0.564 3 4 ping 5000 ------- 1 0.0 4.0 -1 34
- 0.564 3 4 ping 5000 ------- 1 0.0 4.0 -1 34
r 0.572102 4 3 ping 64 ------- 0 4.0 0.0 -1 76
+ 0.572102 3 2 ping 64 ------- 0 4.0 0.0 -1 76
- 0.572102 3 2 ping 64 ------- 0 4.0 0.0 -1 76
r 0.57241 2 0 ping 64 ------- 0 4.0 0.0 -1 71
r 0.582 3 4 ping 5000 ------- 1 0.0 4.0 -1 30
+ 0.582 4 3 ping 64 ------- 0 4.0 0.0 -1 79
- 0.582 4 3 ping 64 ------- 0 4.0 0.0 -1 79
r 0.582154 3 2 ping 64 ------- 0 4.0 0.0 -1 74
+ 0.582154 2 0 ping 64 ------- 0 4.0 0.0 -1 74
- 0.582154 2 0 ping 64 ------- 0 4.0 0.0 -1 74
r 0.584 2 3 ping 5000 ------- 1 0.0 4.0 -1 36
+ 0.584 3 4 ping 5000 ------- 1 0.0 4.0 -1 36
- 0.584 3 4 ping 5000 ------- 1 0.0 4.0 -1 36
r 0.592102 4 3 ping 64 ------- 0 4.0 0.0 -1 77
+ 0.592102 3 2 ping 64 ------- 0 4.0 0.0 -1 77
- 0.592102 3 2 ping 64 ------- 0 4.0 0.0 -1 77
r 0.59241 2 0 ping 64 ------- 0 4.0 0.0 -1 72
r 0.602 3 4 ping 5000 ------- 1 0.0 4.0 -1 32
+ 0.602 4 3 ping 64 ------- 0 4.0 0.0 -1 80
- 0.602 4 3 ping 64 ------- 0 4.0 0.0 -1 80
r 0.602154 3 2 ping 64 ------- 0 4.0 0.0 -1 75
+ 0.602154 2 0 ping 64 ------- 0 4.0 0.0 -1 75
- 0.602154 2 0 ping 64 ------- 0 4.0 0.0 -1 75
r 0.604 2 3 ping 5000 ------- 1 0.0 4.0 -1 38
+ 0.604 3 4 ping 5000 ------- 1 0.0 4.0 -1 38
- 0.604 3 4 ping 5000 ------- 1 0.0 4.0 -1 38
r 0.612102 4 3 ping 64 ------- 0 4.0 0.0 -1 78
+ 0.612102 3 2 ping 64 ------- 0 4.0 0.0 -1 78
- 0.612102 3 2 ping 64 ------- 0 4.0 0.0 -1 78
r 0.61241 2 0 ping 64 ------- 0 4.0 0.0 -1 73
r 0.622 3 4 ping 5000 ------- 1 0.0 4.0 -1 34
+ 0.622 4 3 ping 64 ------- 0 4.0 0.0 -1 81
- 0.622 4 3 ping 64 ------- 0 4.0 0.0 -1 81
r 0.622154 3 2 ping 64 ------- 0 4.0 0.0 -1 76
+ 0.622154 2 0 ping 64 ------- 0 4.0 0.0 -1 76
- 0.622154 2 0 ping 64 ------- 0 4.0 0.0 -1 76
r 0.632102 4 3 ping 64 ------- 0 4.0 0.0 -1 79
+ 0.632102 3 2 ping 64 ------- 0 4.0 0.0 -1 79
- 0.632102 3 2 ping 64 ------- 0 4.0 0.0 -1 79
r 0.63241 2 0 ping 64 ------- 0 4.0 0.0 -1 74
r 0.642 3 4 ping 5000 ------- 1 0.0 4.0 -1 36
+ 0.642 4 3 ping 64 ------- 0 4.0 0.0 -1 82
- 0.642 4 3 ping 64 ------- 0 4.0 0.0 -1 82
r 0.642154 3 2 ping 64 ------- 0 4.0 0.0 -1 77
+ 0.642154 2 0 ping 64 ------- 0 4.0 0.0 -1 77
- 0.642154 2 0 ping 64 ------- 0 4.0 0.0 -1 77
r 0.652102 4 3 ping 64 ------- 0 4.0 0.0 -1 80
+ 0.652102 3 2 ping 64 ------- 0 4.0 0.0 -1 80
- 0.652102 3 2 ping 64 ------- 0 4.0 0.0 -1 80
r 0.65241 2 0 ping 64 ------- 0 4.0 0.0 -1 75
r 0.662 3 4 ping 5000 ------- 1 0.0 4.0 -1 38
+ 0.662 4 3 ping 64 ------- 0 4.0 0.0 -1 83
- 0.662 4 3 ping 64 ------- 0 4.0 0.0 -1 83
r 0.662154 3 2 ping 64 ------- 0 4.0 0.0 -1 78
+ 0.662154 2 0 ping 64 ------- 0 4.0 0.0 -1 78
- 0.662154 2 0 ping 64 ------- 0 4.0 0.0 -1 78
r 0.672102 4 3 ping 64 ------- 0 4.0 0.0 -1 81
+ 0.672102 3 2 ping 64 ------- 0 4.0 0.0 -1 81
- 0.672102 3 2 ping 64 ------- 0 4.0 0.0 -1 81
r 0.67241 2 0 ping 64 ------- 0 4.0 0.0 -1 76
r 0.682154 3 2 ping 64 ------- 0 4.0 0.0 -1 79
+ 0.682154 2 0 ping 64 ------- 0 4.0 0.0 -1 79
- 0.682154 2 0 ping 64 ------- 0 4.0 0.0 -1 79
r 0.692102 4 3 ping 64 ------- 0 4.0 0.0 -1 82
+ 0.692102 3 2 ping 64 ------- 0 4.0 0.0 -1 82
- 0.692102 3 2 ping 64 ------- 0 4.0 0.0 -1 82
r 0.69241 2 0 ping 64 ------- 0 4.0 0.0 -1 77
r 0.702154 3 2 ping 64 ------- 0 4.0 0.0 -1 80
+ 0.702154 2 0 ping 64 ------- 0 4.0 0.0 -1 80
- 0.702154 2 0 ping 64 ------- 0 4.0 0.0 -1 80
r 0.712102 4 3 ping 64 ------- 0 4.0 0.0 -1 83
+ 0.712102 3 2 ping 64 ------- 0 4.0 0.0 -1 83
- 0.712102 3 2 ping 64 ------- 0 4.0 0.0 -1 83
r 0.71241 2 0 ping 64 ------- 0 4.0 0.0 -1 78
r 0.722154 3 2 ping 64 ------- 0 4.0 0.0 -1 81
+ 0.722154 2 0 ping 64 ------- 0 4.0 0.0 -1 81
- 0.722154 2 0 ping 64 ------- 0 4.0 0.0 -1 81
r 0.73241 2 0 ping 64 ------- 0 4.0 0.0 -1 79
r 0.742154 3 2 ping 64 ------- 0 4.0 0.0 -1 82
+ 0.742154 2 0 ping 64 ------- 0 4.0 0.0 -1 82
- 0.742154 2 0 ping 64 ------- 0 4.0 0.0 -1 82
r 0.75241 2 0 ping 64 ------- 0 4.0 0.0 -1 80
r 0.762154 3 2 ping 64 ------- 0 4.0 0.0 -1 83
+ 0.762154 2 0 ping 64 ------- 0 4.0 0.0 -1 83
- 0.762154 2 0 ping 64 ------- 0 4.0 0.0 -1 83
r 0.77241 2 0 ping 64 ------- 0 4.0 0.0 -1 81
r 0.79241 2 0 ping 64 ------- 0 4.0 0.0 -1 82
r 0.81241 2 0 ping 64 ------- 0 4.0 0.0 -1 83
