+ 0.1 0 2 ping 5000 ------- 1 0.0 4.0 -1 0
- 0.1 0 2 ping 5000 ------- 1 0.0 4.0 -1 0
+ 0.1 5 3 ping 6000 ------- 2 5.0 1.0 -1 1
- 0.1 5 3 ping 6000 ------- 2 5.0 1.0 -1 1
+ 0.1 0 2 ping 5000 ------- 1 0.0 4.0 -1 2
+ 0.1 5 3 ping 6000 ------- 2 5.0 1.0 -1 3
+ 0.1 0 2 ping 5000 ------- 1 0.0 4.0 -1 4
+ 0.1 5 3 ping 6000 ------- 2 5.0 1.0 -1 5
+ 0.1 0 2 ping 5000 ------- 1 0.0 4.0 -1 6
+ 0.1 5 3 ping 6000 ------- 2 5.0 1.0 -1 7
+ 0.1 0 2 ping 5000 ------- 1 0.0 4.0 -1 8
+ 0.1 5 3 ping 6000 ------- 2 5.0 1.0 -1 9
+ 0.1 0 2 ping 5000 ------- 1 0.0 4.0 -1 10
+ 0.1 5 3 ping 6000 ------- 2 5.0 1.0 -1 11
d 0.1 5 3 ping 6000 ------- 2 5.0 1.0 -1 11
+ 0.1 0 2 ping 5000 ------- 1 0.0 4.0 -1 12
+ 0.1 5 3 ping 6000 ------- 2 5.0 1.0 -1 13
d 0.1 5 3 ping 6000 ------- 2 5.0 1.0 -1 13
+ 0.1 0 2 ping 5000 ------- 1 0.0 4.0 -1 14
+ 0.1 5 3 ping 6000 ------- 2 5.0 1.0 -1 15
d 0.1 5 3 ping 6000 ------- 2 5.0 1.0 -1 15
+ 0.1 0 2 ping 5000 ------- 1 0.0 4.0 -1 16
+ 0.1 5 3 ping 6000 ------- 2 5.0 1.0 -1 17
d 0.1 5 3 ping 6000 ------- 2 5.0 1.0 -1 17
+ 0.1 0 2 ping 5000 ------- 1 0.0 4.0 -1 18
+ 0.1 5 3 ping 6000 ------- 2 5.0 1.0 -1 19
d 0.1 5 3 ping 6000 ------- 2 5.0 1.0 -1 19
+ 0.1 0 2 ping 5000 ------- 1 0.0 4.0 -1 20
+ 0.1 5 3 ping 6000 ------- 2 5.0 1.0 -1 21
d 0.1 5 3 ping 6000 ------- 2 5.0 1.0 -1 21
+ 0.1 0 2 ping 5000 ------- 1 0.0 4.0 -1 22
+ 0.1 5 3 ping 6000 ------- 2 5.0 1.0 -1 23
d 0.1 5 3 ping 6000 ------- 2 5.0 1.0 -1 23
+ 0.1 0 2 ping 5000 ------- 1 0.0 4.0 -1 24
d 0.1 0 2 ping 5000 ------- 1 0.0 4.0 -1 24
+ 0.1 5 3 ping 6000 ------- 2 5.0 1.0 -1 25
d 0.1 5 3 ping 6000 ------- 2 5.0 1.0 -1 25
+ 0.1 0 2 ping 5000 ------- 1 0.0 4.0 -1 26
d 0.1 0 2 ping 5000 ------- 1 0.0 4.0 -1 26
+ 0.1 5 3 ping 6000 ------- 2 5.0 1.0 -1 27
d 0.1 5 3 ping 6000 ------- 2 5.0 1.0 -1 27
+ 0.1 0 2 ping 5000 ------- 1 0.0 4.0 -1 28
d 0.1 0 2 ping 5000 ------- 1 0.0 4.0 -1 28
+ 0.1 5 3 ping 6000 ------- 2 5.0 1.0 -1 29
d 0.1 5 3 ping 6000 ------- 2 5.0 1.0 -1 29
+ 0.1 0 2 ping 5000 ------- 1 0.0 4.0 -1 30
d 0.1 0 2 ping 5000 ------- 1 0.0 4.0 -1 30
+ 0.1 5 3 ping 6000 ------- 2 5.0 1.0 -1 31
d 0.1 5 3 ping 6000 ------- 2 5.0 1.0 -1 31
+ 0.1 0 2 ping 5000 ------- 1 0.0 4.0 -1 32
d 0.1 0 2 ping 5000 ------- 1 0.0 4.0 -1 32
+ 0.1 5 3 ping 6000 ------- 2 5.0 1.0 -1 33
d 0.1 5 3 ping 6000 ------- 2 5.0 1.0 -1 33
+ 0.1 0 2 ping 5000 ------- 1 0.0 4.0 -1 34
d 0.1 0 2 ping 5000 ------- 1 0.0 4.0 -1 34
+ 0.1 5 3 ping 6000 ------- 2 5.0 1.0 -1 35
d 0.1 5 3 ping 6000 ------- 2 5.0 1.0 -1 35
+ 0.1 0 2 ping 5000 ------- 1 0.0 4.0 -1 36
d 0.1 0 2 ping 5000 ------- 1 0.0 4.0 -1 36
+ 0.1 5 3 ping 6000 ------- 2 5.0 1.0 -1 37
d 0.1 5 3 ping 6000 ------- 2 5.0 1.0 -1 37
+ 0.1 0 2 ping 5000 ------- 1 0.0 4.0 -1 38
d 0.1 0 2 ping 5000 ------- 1 0.0 4.0 -1 38
+ 0.1 5 3 ping 6000 ------- 2 5.0 1.0 -1 39
d 0.1 5 3 ping 6000 ------- 2 5.0 1.0 -1 39
+ 0.1 0 2 ping 5000 ------- 1 0.0 4.0 -1 40
d 0.1 0 2 ping 5000 ------- 1 0.0 4.0 -1 40
+ 0.1 5 3 ping 6000 ------- 2 5.0 1.0 -1 41
d 0.1 5 3 ping 6000 ------- 2 5.0 1.0 -1 41
+ 0.1 0 2 ping 5000 ------- 1 0.0 4.0 -1 42
d 0.1 0 2 ping 5000 ------- 1 0.0 4.0 -1 42
+ 0.1 5 3 ping 6000 ------- 2 5.0 1.0 -1 43
d 0.1 5 3 ping 6000 ------- 2 5.0 1.0 -1 43
+ 0.1 0 2 ping 5000 ------- 1 0.0 4.0 -1 44
d 0.1 0 2 ping 5000 ------- 1 0.0 4.0 -1 44
+ 0.1 5 3 ping 6000 ------- 2 5.0 1.0 -1 45
d 0.1 5 3 ping 6000 ------- 2 5.0 1.0 -1 45
+ 0.1 0 2 ping 5000 ------- 1 0.0 4.0 -1 46
d 0.1 0 2 ping 5000 ------- 1 0.0 4.0 -1 46
+ 0.1 5 3 ping 6000 ------- 2 5.0 1.0 -1 47
d 0.1 5 3 ping 6000 ------- 2 5.0 1.0 -1 47
+ 0.1 0 2 ping 5000 ------- 1 0.0 4.0 -1 48
d 0.1 0 2 ping 5000 ------- 1 0.0 4.0 -1 48
+ 0.1 5 3 ping 6000 ------- 2 5.0 1.0 -1 49
d 0.1 5 3 ping 6000 ------- 2 5.0 1.0 -1 49
+ 0.1 0 2 ping 5000 ------- 1 0.0 4.0 -1 50
d 0.1 0 2 ping 5000 ------- 1 0.0 4.0 -1 50
+ 0.1 5 3 ping 6000 ------- 2 5.0 1.0 -1 51
d 0.1 5 3 ping 6000 ------- 2 5.0 1.0 -1 51
+ 0.1 0 2 ping 5000 ------- 1 0.0 4.0 -1 52
d 0.1 0 2 ping 5000 ------- 1 0.0 4.0 -1 52
+ 0.1 5 3 ping 6000 ------- 2 5.0 1.0 -1 53
d 0.1 5 3 ping 6000 ------- 2 5.0 1.0 -1 53
+ 0.1 0 2 ping 5000 ------- 1 0.0 4.0 -1 54
d 0.1 0 2 ping 5000 ------- 1 0.0 4.0 -1 54
+ 0.1 5 3 ping 6000 ------- 2 5.0 1.0 -1 55
d 0.1 5 3 ping 6000 ------- 2 5.0 1.0 -1 55
+ 0.1 0 2 ping 5000 ------- 1 0.0 4.0 -1 56
d 0.1 0 2 ping 5000 ------- 1 0.0 4.0 -1 56
+ 0.1 5 3 ping 6000 ------- 2 5.0 1.0 -1 57
d 0.1 5 3 ping 6000 ------- 2 5.0 1.0 -1 57
+ 0.1 0 2 ping 5000 ------- 1 0.0 4.0 -1 58
d 0.1 0 2 ping 5000 ------- 1 0.0 4.0 -1 58
+ 0.1 5 3 ping 6000 ------- 2 5.0 1.0 -1 59
d 0.1 5 3 ping 6000 ------- 2 5.0 1.0 -1 59
+ 0.1 0 2 ping 5000 ------- 1 0.0 4.0 -1 60
d 0.1 0 2 ping 5000 ------- 1 0.0 4.0 -1 60
+ 0.1 5 3 ping 6000 ------- 2 5.0 1.0 -1 61
d 0.1 5 3 ping 6000 ------- 2 5.0 1.0 -1 61
+ 0.1 0 2 ping 5000 ------- 1 0.0 4.0 -1 62
d 0.1 0 2 ping 5000 ------- 1 0.0 4.0 -1 62
+ 0.1 5 3 ping 6000 ------- 2 5.0 1.0 -1 63
d 0.1 5 3 ping 6000 ------- 2 5.0 1.0 -1 63
+ 0.1 0 2 ping 5000 ------- 1 0.0 4.0 -1 64
d 0.1 0 2 ping 5000 ------- 1 0.0 4.0 -1 64
+ 0.1 5 3 ping 6000 ------- 2 5.0 1.0 -1 65
d 0.1 5 3 ping 6000 ------- 2 5.0 1.0 -1 65
+ 0.1 0 2 ping 5000 ------- 1 0.0 4.0 -1 66
d 0.1 0 2 ping 5000 ------- 1 0.0 4.0 -1 66
+ 0.1 5 3 ping 6000 ------- 2 5.0 1.0 -1 67
d 0.1 5 3 ping 6000 ------- 2 5.0 1.0 -1 67
+ 0.1 0 2 ping 5000 ------- 1 0.0 4.0 -1 68
d 0.1 0 2 ping 5000 ------- 1 0.0 4.0 -1 68
+ 0.1 5 3 ping 6000 ------- 2 5.0 1.0 -1 69
d 0.1 5 3 ping 6000 ------- 2 5.0 1.0 -1 69
+ 0.1 0 2 ping 5000 ------- 1 0.0 4.0 -1 70
d 0.1 0 2 ping 5000 ------- 1 0.0 4.0 -1 70
+ 0.1 5 3 ping 6000 ------- 2 5.0 1.0 -1 71
d 0.1 5 3 ping 6000 ------- 2 5.0 1.0 -1 71
+ 0.1 0 2 ping 5000 ------- 1 0.0 4.0 -1 72
d 0.1 0 2 ping 5000 ------- 1 0.0 4.0 -1 72
+ 0.1 5 3 ping 6000 ------- 2 5.0 1.0 -1 73
d 0.1 5 3 ping 6000 ------- 2 5.0 1.0 -1 73
+ 0.1 0 2 ping 5000 ------- 1 0.0 4.0 -1 74
d 0.1 0 2 ping 5000 ------- 1 0.0 4.0 -1 74
+ 0.1 5 3 ping 6000 ------- 2 5.0 1.0 -1 75
d 0.1 5 3 ping 6000 ------- 2 5.0 1.0 -1 75
+ 0.1 0 2 ping 5000 ------- 1 0.0 4.0 -1 76
d 0.1 0 2 ping 5000 ------- 1 0.0 4.0 -1 76
+ 0.1 5 3 ping 6000 ------- 2 5.0 1.0 -1 77
d 0.1 5 3 ping 6000 ------- 2 5.0 1.0 -1 77
+ 0.1 0 2 ping 5000 ------- 1 0.0 4.0 -1 78
d 0.1 0 2 ping 5000 ------- 1 0.0 4.0 -1 78
+ 0.1 5 3 ping 6000 ------- 2 5.0 1.0 -1 79
d 0.1 5 3 ping 6000 ------- 2 5.0 1.0 -1 79
- 0.108 0 2 ping 5000 ------- 1 0.0 4.0 -1 2
- 0.112 5 3 ping 6000 ------- 2 5.0 1.0 -1 3
- 0.116 0 2 ping 5000 ------- 1 0.0 4.0 -1 4
- 0.124 5 3 ping 6000 ------- 2 5.0 1.0 -1 5
- 0.124 0 2 ping 5000 ------- 1 0.0 4.0 -1 6
- 0.132 0 2 ping 5000 ------- 1 0.0 4.0 -1 8
- 0.136 5 3 ping 6000 ------- 2 5.0 1.0 -1 7
- 0.14 0 2 ping 5000 ------- 1 0.0 4.0 -1 10
- 0.148 5 3 ping 6000 ------- 2 5.0 1.0 -1 9
- 0.148 0 2 ping 5000 ------- 1 0.0 4.0 -1 12
- 0.156 0 2 ping 5000 ------- 1 0.0 4.0 -1 14
r 0.158 0 2 ping 5000 ------- 1 0.0 4.0 -1 0
+ 0.158 2 3 ping 5000 ------- 1 0.0 4.0 -1 0
- 0.158 2 3 ping 5000 ------- 1 0.0 4.0 -1 0
r 0.162 5 3 ping 6000 ------- 2 5.0 1.0 -1 1
+ 0.162 3 2 ping 6000 ------- 2 5.0 1.0 -1 1
- 0.162 3 2 ping 6000 ------- 2 5.0 1.0 -1 1
- 0.164 0 2 ping 5000 ------- 1 0.0 4.0 -1 16
r 0.166 0 2 ping 5000 ------- 1 0.0 4.0 -1 2
+ 0.166 2 3 ping 5000 ------- 1 0.0 4.0 -1 2
- 0.166 2 3 ping 5000 ------- 1 0.0 4.0 -1 2
- 0.172 0 2 ping 5000 ------- 1 0.0 4.0 -1 18
r 0.174 5 3 ping 6000 ------- 2 5.0 1.0 -1 3
+ 0.174 3 2 ping 6000 ------- 2 5.0 1.0 -1 3
- 0.174 3 2 ping 6000 ------- 2 5.0 1.0 -1 3
r 0.174 0 2 ping 5000 ------- 1 0.0 4.0 -1 4
+ 0.174 2 3 ping 5000 ------- 1 0.0 4.0 -1 4
- 0.174 2 3 ping 5000 ------- 1 0.0 4.0 -1 4
- 0.18 0 2 ping 5000 ------- 1 0.0 4.0 -1 20
r 0.182 0 2 ping 5000 ------- 1 0.0 4.0 -1 6
+ 0.182 2 3 ping 5000 ------- 1 0.0 4.0 -1 6
- 0.182 2 3 ping 5000 ------- 1 0.0 4.0 -1 6
r 0.186 5 3 ping 6000 ------- 2 5.0 1.0 -1 5
+ 0.186 3 2 ping 6000 ------- 2 5.0 1.0 -1 5
- 0.186 3 2 ping 6000 ------- 2 5.0 1.0 -1 5
- 0.188 0 2 ping 5000 ------- 1 0.0 4.0 -1 22
r 0.19 0 2 ping 5000 ------- 1 0.0 4.0 -1 8
+ 0.19 2 3 ping 5000 ------- 1 0.0 4.0 -1 8
- 0.19 2 3 ping 5000 ------- 1 0.0 4.0 -1 8
r 0.198 5 3 ping 6000 ------- 2 5.0 1.0 -1 7
+ 0.198 3 2 ping 6000 ------- 2 5.0 1.0 -1 7
- 0.198 3 2 ping 6000 ------- 2 5.0 1.0 -1 7
r 0.198 0 2 ping 5000 ------- 1 0.0 4.0 -1 10
+ 0.198 2 3 ping 5000 ------- 1 0.0 4.0 -1 10
- 0.198 2 3 ping 5000 ------- 1 0.0 4.0 -1 10
r 0.206 0 2 ping 5000 ------- 1 0.0 4.0 -1 12
+ 0.206 2 3 ping 5000 ------- 1 0.0 4.0 -1 12
- 0.206 2 3 ping 5000 ------- 1 0.0 4.0 -1 12
r 0.21 5 3 ping 6000 ------- 2 5.0 1.0 -1 9
+ 0.21 3 2 ping 6000 ------- 2 5.0 1.0 -1 9
- 0.21 3 2 ping 6000 ------- 2 5.0 1.0 -1 9
r 0.210105 2 3 ping 5000 ------- 1 0.0 4.0 -1 0
+ 0.210105 3 4 ping 5000 ------- 1 0.0 4.0 -1 0
- 0.210105 3 4 ping 5000 ------- 1 0.0 4.0 -1 0
r 0.214 0 2 ping 5000 ------- 1 0.0 4.0 -1 14
+ 0.214 2 3 ping 5000 ------- 1 0.0 4.0 -1 14
- 0.214 2 3 ping 5000 ------- 1 0.0 4.0 -1 14
r 0.214526 3 2 ping 6000 ------- 2 5.0 1.0 -1 1
+ 0.214526 2 1 ping 6000 ------- 2 5.0 1.0 -1 1
- 0.214526 2 1 ping 6000 ------- 2 5.0 1.0 -1 1
r 0.218105 2 3 ping 5000 ------- 1 0.0 4.0 -1 2
+ 0.218105 3 4 ping 5000 ------- 1 0.0 4.0 -1 2
- 0.218105 3 4 ping 5000 ------- 1 0.0 4.0 -1 2
r 0.222 0 2 ping 5000 ------- 1 0.0 4.0 -1 16
+ 0.222 2 3 ping 5000 ------- 1 0.0 4.0 -1 16
- 0.222 2 3 ping 5000 ------- 1 0.0 4.0 -1 16
r 0.226105 2 3 ping 5000 ------- 1 0.0 4.0 -1 4
+ 0.226105 3 4 ping 5000 ------- 1 0.0 4.0 -1 4
- 0.226105 3 4 ping 5000 ------- 1 0.0 4.0 -1 4
r 0.226526 3 2 ping 6000 ------- 2 5.0 1.0 -1 3
+ 0.226526 2 1 ping 6000 ------- 2 5.0 1.0 -1 3
r 0.23 0 2 ping 5000 ------- 1 0.0 4.0 -1 18
+ 0.23 2 3 ping 5000 ------- 1 0.0 4.0 -1 18
- 0.23 2 3 ping 5000 ------- 1 0.0 4.0 -1 18
- 0.230526 2 1 ping 6000 ------- 2 5.0 1.0 -1 3
r 0.234105 2 3 ping 5000 ------- 1 0.0 4.0 -1 6
+ 0.234105 3 4 ping 5000 ------- 1 0.0 4.0 -1 6
- 0.234105 3 4 ping 5000 ------- 1 0.0 4.0 -1 6
r 0.238 0 2 ping 5000 ------- 1 0.0 4.0 -1 20
+ 0.238 2 3 ping 5000 ------- 1 0.0 4.0 -1 20
- 0.238 2 3 ping 5000 ------- 1 0.0 4.0 -1 20
r 0.238526 3 2 ping 6000 ------- 2 5.0 1.0 -1 5
+ 0.238526 2 1 ping 6000 ------- 2 5.0 1.0 -1 5
r 0.242105 2 3 ping 5000 ------- 1 0.0 4.0 -1 8
+ 0.242105 3 4 ping 5000 ------- 1 0.0 4.0 -1 8
- 0.242105 3 4 ping 5000 ------- 1 0.0 4.0 -1 8
r 0.246 0 2 ping 5000 ------- 1 0.0 4.0 -1 22
+ 0.246 2 3 ping 5000 ------- 1 0.0 4.0 -1 22
- 0.246 2 3 ping 5000 ------- 1 0.0 4.0 -1 22
- 0.246526 2 1 ping 6000 ------- 2 5.0 1.0 -1 5
r 0.250105 2 3 ping 5000 ------- 1 0.0 4.0 -1 10
+ 0.250105 3 4 ping 5000 ------- 1 0.0 4.0 -1 10
- 0.250105 3 4 ping 5000 ------- 1 0.0 4.0 -1 10
r 0.250526 3 2 ping 6000 ------- 2 5.0 1.0 -1 7
+ 0.250526 2 1 ping 6000 ------- 2 5.0 1.0 -1 7
r 0.258105 2 3 ping 5000 ------- 1 0.0 4.0 -1 12
+ 0.258105 3 4 ping 5000 ------- 1 0.0 4.0 -1 12
- 0.258105 3 4 ping 5000 ------- 1 0.0 4.0 -1 12
r 0.262526 3 2 ping 6000 ------- 2 5.0 1.0 -1 9
+ 0.262526 2 1 ping 6000 ------- 2 5.0 1.0 -1 9
- 0.262526 2 1 ping 6000 ------- 2 5.0 1.0 -1 7
r 0.266105 2 3 ping 5000 ------- 1 0.0 4.0 -1 14
+ 0.266105 3 4 ping 5000 ------- 1 0.0 4.0 -1 14
- 0.266105 3 4 ping 5000 ------- 1 0.0 4.0 -1 14
r 0.266772 3 4 ping 5000 ------- 1 0.0 4.0 -1 0
+ 0.266772 4 3 ping 64 ------- 0 4.0 0.0 -1 80
- 0.266772 4 3 ping 64 ------- 0 4.0 0.0 -1 80
r 0.274105 2 3 ping 5000 ------- 1 0.0 4.0 -1 16
+ 0.274105 3 4 ping 5000 ------- 1 0.0 4.0 -1 16
- 0.274105 3 4 ping 5000 ------- 1 0.0 4.0 -1 16
r 0.274772 3 4 ping 5000 ------- 1 0.0 4.0 -1 2
+ 0.274772 4 3 ping 64 ------- 0 4.0 0.0 -1 81
- 0.274772 4 3 ping 64 ------- 0 4.0 0.0 -1 81
- 0.278526 2 1 ping 6000 ------- 2 5.0 1.0 -1 9
r 0.280526 2 1 ping 6000 ------- 2 5.0 1.0 -1 1
+ 0.280526 1 2 ping 64 ------- 0 1.0 5.0 -1 82
- 0.280526 1 2 ping 64 ------- 0 1.0 5.0 -1 82
r 0.282105 2 3 ping 5000 ------- 1 0.0 4.0 -1 18
+ 0.282105 3 4 ping 5000 ------- 1 0.0 4.0 -1 18
- 0.282105 3 4 ping 5000 ------- 1 0.0 4.0 -1 18
r 0.282772 3 4 ping 5000 ------- 1 0.0 4.0 -1 4
+ 0.282772 4 3 ping 64 ------- 0 4.0 0.0 -1 83
- 0.282772 4 3 ping 64 ------- 0 4.0 0.0 -1 83
r 0.290105 2 3 ping 5000 ------- 1 0.0 4.0 -1 20
+ 0.290105 3 4 ping 5000 ------- 1 0.0 4.0 -1 20
- 0.290105 3 4 ping 5000 ------- 1 0.0 4.0 -1 20
r 0.290772 3 4 ping 5000 ------- 1 0.0 4.0 -1 6
+ 0.290772 4 3 ping 64 ------- 0 4.0 0.0 -1 84
- 0.290772 4 3 ping 64 ------- 0 4.0 0.0 -1 84
r 0.296526 2 1 ping 6000 ------- 2 5.0 1.0 -1 3
+ 0.296526 1 2 ping 64 ------- 0 1.0 5.0 -1 85
- 0.296526 1 2 ping 64 ------- 0 1.0 5.0 -1 85
r 0.298105 2 3 ping 5000 ------- 1 0.0 4.0 -1 22
+ 0.298105 3 4 ping 5000 ------- 1 0.0 4.0 -1 22
- 0.298105 3 4 ping 5000 ------- 1 0.0 4.0 -1 22
r 0.298772 3 4 ping 5000 ------- 1 0.0 4.0 -1 8
+ 0.298772 4 3 ping 64 ------- 0 4.0 0.0 -1 86
- 0.298772 4 3 ping 64 ------- 0 4.0 0.0 -1 86
r 0.306772 3 4 ping 5000 ------- 1 0.0 4.0 -1 10
+ 0.306772 4 3 ping 64 ------- 0 4.0 0.0 -1 87
- 0.306772 4 3 ping 64 ------- 0 4.0 0.0 -1 87
r 0.312526 2 1 ping 6000 ------- 2 5.0 1.0 -1 5
+ 0.312526 1 2 ping 64 ------- 0 1.0 5.0 -1 88
- 0.312526 1 2 ping 64 ------- 0 1.0 5.0 -1 88
r 0.314772 3 4 ping 5000 ------- 1 0.0 4.0 -1 12
+ 0.314772 4 3 ping 64 ------- 0 4.0 0.0 -1 89
- 0.314772 4 3 ping 64 ------- 0 4.0 0.0 -1 89
r 0.316857 4 3 ping 64 ------- 0 4.0 0.0 -1 80
+ 0.316857 3 2 ping 64 ------- 0 4.0 0.0 -1 80
- 0.316857 3 2 ping 64 ------- 0 4.0 0.0 -1 80
r 0.322772 3 4 ping 5000 ------- 1 0.0 4.0 -1 14
+ 0.322772 4 3 ping 64 ------- 0 4.0 0.0 -1 90
- 0.322772 4 3 ping 64 ------- 0 4.0 0.0 -1 90
r 0.324857 4 3 ping 64 ------- 0 4.0 0.0 -1 81
+ 0.324857 3 2 ping 64 ------- 0 4.0 0.0 -1 81
- 0.324857 3 2 ping 64 ------- 0 4.0 0.0 -1 81
r 0.328526 2 1 ping 6000 ------- 2 5.0 1.0 -1 7
+ 0.328526 1 2 ping 64 ------- 0 1.0 5.0 -1 91
- 0.328526 1 2 ping 64 ------- 0 1.0 5.0 -1 91
r 0.330697 1 2 ping 64 ------- 0 1.0 5.0 -1 82
+ 0.330697 2 3 ping 64 ------- 0 1.0 5.0 -1 82
- 0.330697 2 3 ping 64 ------- 0 1.0 5.0 -1 82
r 0.330772 3 4 ping 5000 ------- 1 0.0 4.0 -1 16
+ 0.330772 4 3 ping 64 ------- 0 4.0 0.0 -1 92
- 0.330772 4 3 ping 64 ------- 0 4.0 0.0 -1 92
r 0.332857 4 3 ping 64 ------- 0 4.0 0.0 -1 83
+ 0.332857 3 2 ping 64 ------- 0 4.0 0.0 -1 83
- 0.332857 3 2 ping 64 ------- 0 4.0 0.0 -1 83
r 0.338772 3 4 ping 5000 ------- 1 0.0 4.0 -1 18
+ 0.338772 4 3 ping 64 ------- 0 4.0 0.0 -1 93
- 0.338772 4 3 ping 64 ------- 0 4.0 0.0 -1 93
r 0.340857 4 3 ping 64 ------- 0 4.0 0.0 -1 84
+ 0.340857 3 2 ping 64 ------- 0 4.0 0.0 -1 84
- 0.340857 3 2 ping 64 ------- 0 4.0 0.0 -1 84
r 0.344526 2 1 ping 6000 ------- 2 5.0 1.0 -1 9
+ 0.344526 1 2 ping 64 ------- 0 1.0 5.0 -1 94
- 0.344526 1 2 ping 64 ------- 0 1.0 5.0 -1 94
r 0.346697 1 2 ping 64 ------- 0 1.0 5.0 -1 85
+ 0.346697 2 3 ping 64 ------- 0 1.0 5.0 -1 85
- 0.346697 2 3 ping 64 ------- 0 1.0 5.0 -1 85
r 0.346772 3 4 ping 5000 ------- 1 0.0 4.0 -1 20
+ 0.346772 4 3 ping 64 ------- 0 4.0 0.0 -1 95
- 0.346772 4 3 ping 64 ------- 0 4.0 0.0 -1 95
r 0.348857 4 3 ping 64 ------- 0 4.0 0.0 -1 86
+ 0.348857 3 2 ping 64 ------- 0 4.0 0.0 -1 86
- 0.348857 3 2 ping 64 ------- 0 4.0 0.0 -1 86
r 0.354772 3 4 ping 5000 ------- 1 0.0 4.0 -1 22
+ 0.354772 4 3 ping 64 ------- 0 4.0 0.0 -1 96
- 0.354772 4 3 ping 64 ------- 0 4.0 0.0 -1 96
r 0.356857 4 3 ping 64 ------- 0 4.0 0.0 -1 87
+ 0.356857 3 2 ping 64 ------- 0 4.0 0.0 -1 87
- 0.356857 3 2 ping 64 ------- 0 4.0 0.0 -1 87
r 0.362697 1 2 ping 64 ------- 0 1.0 5.0 -1 88
+ 0.362697 2 3 ping 64 ------- 0 1.0 5.0 -1 88
- 0.362697 2 3 ping 64 ------- 0 1.0 5.0 -1 88
r 0.364857 4 3 ping 64 ------- 0 4.0 0.0 -1 89
+ 0.364857 3 2 ping 64 ------- 0 4.0 0.0 -1 89
- 0.364857 3 2 ping 64 ------- 0 4.0 0.0 -1 89
r 0.366884 3 2 ping 64 ------- 0 4.0 0.0 -1 80
+ 0.366884 2 0 ping 64 ------- 0 4.0 0.0 -1 80
- 0.366884 2 0 ping 64 ------- 0 4.0 0.0 -1 80
r 0.372857 4 3 ping 64 ------- 0 4.0 0.0 -1 90
+ 0.372857 3 2 ping 64 ------- 0 4.0 0.0 -1 90
- 0.372857 3 2 ping 64 ------- 0 4.0 0.0 -1 90
r 0.374884 3 2 ping 64 ------- 0 4.0 0.0 -1 81
+ 0.374884 2 0 ping 64 ------- 0 4.0 0.0 -1 81
- 0.374884 2 0 ping 64 ------- 0 4.0 0.0 -1 81
r 0.378697 1 2 ping 64 ------- 0 1.0 5.0 -1 91
+ 0.378697 2 3 ping 64 ------- 0 1.0 5.0 -1 91
- 0.378697 2 3 ping 64 ------- 0 1.0 5.0 -1 91
r 0.380724 2 3 ping 64 ------- 0 1.0 5.0 -1 82
+ 0.380724 3 5 ping 64 ------- 0 1.0 5.0 -1 82
- 0.380724 3 5 ping 64 ------- 0 1.0 5.0 -1 82
r 0.380857 4 3 ping 64 ------- 0 4.0 0.0 -1 92
+ 0.380857 3 2 ping 64 ------- 0 4.0 0.0 -1 92
- 0.380857 3 2 ping 64 ------- 0 4.0 0.0 -1 92
r 0.382884 3 2 ping 64 ------- 0 4.0 0.0 -1 83
+ 0.382884 2 0 ping 64 ------- 0 4.0 0.0 -1 83
- 0.382884 2 0 ping 64 ------- 0 4.0 0.0 -1 83
r 0.388857 4 3 ping 64 ------- 0 4.0 0.0 -1 93
+ 0.388857 3 2 ping 64 ------- 0 4.0 0.0 -1 93
- 0.388857 3 2 ping 64 ------- 0 4.0 0.0 -1 93
r 0.390884 3 2 ping 64 ------- 0 4.0 0.0 -1 84
+ 0.390884 2 0 ping 64 ------- 0 4.0 0.0 -1 84
- 0.390884 2 0 ping 64 ------- 0 4.0 0.0 -1 84
r 0.394697 1 2 ping 64 ------- 0 1.0 5.0 -1 94
+ 0.394697 2 3 ping 64 ------- 0 1.0 5.0 -1 94
- 0.394697 2 3 ping 64 ------- 0 1.0 5.0 -1 94
r 0.396724 2 3 ping 64 ------- 0 1.0 5.0 -1 85
+ 0.396724 3 5 ping 64 ------- 0 1.0 5.0 -1 85
- 0.396724 3 5 ping 64 ------- 0 1.0 5.0 -1 85
r 0.396857 4 3 ping 64 ------- 0 4.0 0.0 -1 95
+ 0.396857 3 2 ping 64 ------- 0 4.0 0.0 -1 95
- 0.396857 3 2 ping 64 ------- 0 4.0 0.0 -1 95
r 0.398884 3 2 ping 64 ------- 0 4.0 0.0 -1 86
+ 0.398884 2 0 ping 64 ------- 0 4.0 0.0 -1 86
- 0.398884 2 0 ping 64 ------- 0 4.0 0.0 -1 86
r 0.404857 4 3 ping 64 ------- 0 4.0 0.0 -1 96
+ 0.404857 3 2 ping 64 ------- 0 4.0 0.0 -1 96
- 0.404857 3 2 ping 64 ------- 0 4.0 0.0 -1 96
r 0.406884 3 2 ping 64 ------- 0 4.0 0.0 -1 87
+ 0.406884 2 0 ping 64 ------- 0 4.0 0.0 -1 87
- 0.406884 2 0 ping 64 ------- 0 4.0 0.0 -1 87
r 0.412724 2 3 ping 64 ------- 0 1.0 5.0 -1 88
+ 0.412724 3 5 ping 64 ------- 0 1.0 5.0 -1 88
- 0.412724 3 5 ping 64 ------- 0 1.0 5.0 -1 88
r 0.414884 3 2 ping 64 ------- 0 4.0 0.0 -1 89
+ 0.414884 2 0 ping 64 ------- 0 4.0 0.0 -1 89
- 0.414884 2 0 ping 64 ------- 0 4.0 0.0 -1 89
r 0.416987 2 0 ping 64 ------- 0 4.0 0.0 -1 80
r 0.422884 3 2 ping 64 ------- 0 4.0 0.0 -1 90
+ 0.422884 2 0 ping 64 ------- 0 4.0 0.0 -1 90
- 0.422884 2 0 ping 64 ------- 0 4.0 0.0 -1 90
r 0.424987 2 0 ping 64 ------- 0 4.0 0.0 -1 81
r 0.428724 2 3 ping 64 ------- 0 1.0 5.0 -1 91
+ 0.428724 3 5 ping 64 ------- 0 1.0 5.0 -1 91
- 0.428724 3 5 ping 64 ------- 0 1.0 5.0 -1 91
r 0.430852 3 5 ping 64 ------- 0 1.0 5.0 -1 82
r 0.430884 3 2 ping 64 ------- 0 4.0 0.0 -1 92
+ 0.430884 2 0 ping 64 ------- 0 4.0 0.0 -1 92
- 0.430884 2 0 ping 64 ------- 0 4.0 0.0 -1 92
r 0.432987 2 0 ping 64 ------- 0 4.0 0.0 -1 83
r 0.438884 3 2 ping 64 ------- 0 4.0 0.0 -1 93
+ 0.438884 2 0 ping 64 ------- 0 4.0 0.0 -1 93
- 0.438884 2 0 ping 64 ------- 0 4.0 0.0 -1 93
r 0.440987 2 0 ping 64 ------- 0 4.0 0.0 -1 84
r 0.444724 2 3 ping 64 ------- 0 1.0 5.0 -1 94
+ 0.444724 3 5 ping 64 ------- 0 1.0 5.0 -1 94
- 0.444724 3 5 ping 64 ------- 0 1.0 5.0 -1 94
r 0.446852 3 5 ping 64 ------- 0 1.0 5.0 -1 85
r 0.446884 3 2 ping 64 ------- 0 4.0 0.0 -1 95
+ 0.446884 2 0 ping 64 ------- 0 4.0 0.0 -1 95
- 0.446884 2 0 ping 64 ------- 0 4.0 0.0 -1 95
r 0.448987 2 0 ping 64 ------- 0 4.0 0.0 -1 86
r 0.454884 3 2 ping 64 ------- 0 4.0 0.0 -1 96
+ 0.454884 2 0 ping 64 ------- 0 4.0 0.0 -1 96
- 0.454884 2 0 ping 64 ------- 0 4.0 0.0 -1 96
r 0.456987 2 0 ping 64 ------- 0 4.0 0.0 -1 87
r 0.462852 3 5 ping 64 ------- 0 1.0 5.0 -1 88
r 0.464987 2 0 ping 64 ------- 0 4.0 0.0 -1 89
r 0.472987 2 0 ping 64 ------- 0 4.0 0.0 -1 90
r 0.478852 3 5 ping 64 ------- 0 1.0 5.0 -1 91
r 0.480987 2 0 ping 64 ------- 0 4.0 0.0 -1 92
r 0.488987 2 0 ping 64 ------- 0 4.0 0.0 -1 93
r 0.494852 3 5 ping 64 ------- 0 1.0 5.0 -1 94
r 0.496987 2 0 ping 64 ------- 0 4.0 0.0 -1 95
r 0.504987 2 0 ping 64 ------- 0 4.0 0.0 -1 96
